# File generated with Atomsk by upg826249 on 2026-05-04 16:58:52

518  atoms
4  atom types

0.000000000000      17.200000000000  xlo xhi
0.000000000000      17.200000000000  ylo yhi
0.000000000000      17.200000000000  zlo zhi

Masses

1   1.00800000              # H
2   15.99900000             # O
3   24.30500000             # Mg
4   30.97376200             # P

Atoms # atomic

1    3       17.030064000000       5.360810000000       9.769669000000
2    2        9.367000000000       7.045739000000      16.982626000000
3    4       10.757207000000       6.949161000000       0.390942000000
4    2       11.133680000000       7.406303000000       1.741466000000
5    2       11.915799000000       6.520382000000      16.638540000000
6    2       11.293606000000       9.191956000000      16.463806000000
7    4       11.763544000000      10.255311000000      15.348799000000
8    2       11.207073000000       9.590755000000      14.052297000000
9    2       11.064296000000      11.594554000000      15.484920000000
10    2       13.297922000000      10.372339000000      15.342934000000
11    3       16.546143000000      10.701909000000       6.280855000000
12    2        7.156783000000      16.450115000000      12.439762000000
13    1        8.930756000000       2.425131000000       6.594790000000
14    1        8.030147000000      16.115334000000      12.676675000000
15    2        7.399904000000       9.091146000000      17.194118000000
16    1        0.501320000000      13.135932000000       7.059534000000
17    1        7.942650000000       8.412451000000      16.899792000000
18    2        0.934486000000       1.858099000000      10.710801000000
19    1        1.022628000000       2.818839000000      10.255087000000
20    1        0.849088000000      15.757573000000       9.365245000000
21    2       16.839281000000      15.774086000000       2.263658000000
22    1       16.172249000000      16.142801000000       1.707138000000
23    1        0.417705000000      16.252090000000       2.107241000000
24    2        6.991852000000      11.204682000000      10.975991000000
25    1        6.208632000000      10.810045000000      10.633195000000
26    1        7.266226000000      10.811094000000      11.830091000000
27    2       14.352833000000       5.149559000000       6.357894000000
28    1       13.865608000000       5.189636000000       7.162957000000
29    1       15.223514000000       5.593939000000       6.616100000000
30    2        4.098141000000      12.125278000000      16.019255000000
31    1        2.645790000000       0.050932000000      14.255824000000
32    1        3.701801000000      12.053915000000      16.937769000000
33    2       14.620860000000       8.000804000000      14.741312000000
34    1        4.730740000000       1.024602000000      16.521736000000
35    1       16.328270000000      10.001817000000      11.295154000000
36    2        2.082404000000      13.014088000000       3.692668000000
37    1        0.142290000000       6.496474000000       7.527873000000
38    1        1.806533000000      12.573956000000       2.872434000000
39    2       15.710171000000      13.899544000000      10.359732000000
40    1       14.972239000000      13.043001000000       2.289802000000
41    1       11.119352000000      15.408861000000      15.596719000000
42    2        0.228492000000       7.369374000000      13.104284000000
43    1       11.326699000000      13.333405000000       9.112852000000
44    1        5.833844000000       8.500705000000      12.579340000000
45    2       16.116005000000      11.230964000000       8.266389000000
46    1       16.668966000000      12.020375000000       8.577829000000
47    1       16.300577000000      10.566114000000       8.989803000000
48    2       13.016840000000       6.646029000000       4.065650000000
49    1        9.327285000000       7.064367000000      15.100671000000
50    1       17.121344000000       4.539235000000       6.962577000000
51    2       13.106624000000      12.157871000000       4.058460000000
52    1        1.046154000000      10.202954000000      10.496764000000
53    1       13.140095000000      11.576941000000       3.298874000000
54    2       12.743790000000       9.275874000000       5.221679000000
55    1       12.611590000000       8.437907000000       4.734352000000
56    1        3.626001000000       5.031636000000       7.541976000000
57    2        5.651473000000       7.747207000000      11.979662000000
58    1       12.070014000000       1.606747000000       8.602546000000
59    1        6.236857000000       8.043184000000      11.261975000000
60    2       13.125802000000      14.941348000000       3.756704000000
61    1        9.364368000000      14.682780000000       0.155008000000
62    1       13.121295000000      14.015127000000       4.063018000000
63    2        7.460981000000       9.845057000000      13.506850000000
64    1        0.619432000000       4.269350000000      14.152074000000
65    1       10.124402000000       4.349949000000       1.806757000000
66    2        0.730052000000       4.515826000000       2.421726000000
67    1        7.853279000000      13.808917000000       7.194983000000
68    1       13.875463000000      15.338152000000       4.249827000000
69    2        3.838386000000       7.206112000000      16.005219000000
70    1        4.098141000000       6.465910000000      15.419800000000
71    1        4.470297000000       7.886269000000      15.773226000000
72    2       11.538809000000      15.645275000000      14.713017000000
73    1       11.891237000000      16.544113000000      14.914292000000
74    1       12.451888000000       9.007915000000       6.117266000000
75    2        4.158031000000       1.628278000000      17.025747000000
76    1        1.339634000000       6.840836000000       1.224129000000
77    1        5.036814000000      16.721100000000       1.750908000000
78    2        3.114146000000       0.778563000000      13.761101000000
79    1        2.385141000000       1.455218000000      13.769564000000
80    1        4.445529000000      14.300235000000      10.614155000000
81    2        8.769300000000       2.015788000000      12.146984000000
82    1        9.716968000000       1.895750000000      12.129336000000
83    1       14.746506000000       6.331784000000      10.992968000000
84    2        5.821271000000       2.512163000000       7.189548000000
85    1        8.732922000000       2.158703000000       4.221258000000
86    1        3.445057000000      15.482563000000      10.492620000000
87    2       14.664186000000       4.468818000000      14.921086000000
88    1       15.540406000000       4.472172000000      14.487285000000
89    1       11.908231000000       1.083813000000      16.229128000000
90    2        2.082817000000      11.501020000000      13.625943000000
91    1        7.153359000000      12.396487000000       7.253825000000
92    1        3.524228000000       7.017892000000       8.292189000000
93    2       16.797159000000       6.100083000000       4.130219000000
94    1        0.215858000000       6.289455000000       4.877954000000
95    1        1.238415000000       8.167988000000       2.158875000000
96    2       15.648715000000      10.185375000000      12.043285000000
97    1        1.550055000000       8.163859000000       6.476987000000
98    1        5.184287000000       2.552377000000       6.433918000000
99    2        8.135480000000       9.316002000000       2.483474000000
100    1        8.406431000000       8.512934000000       9.884564000000
101    1        8.495338000000       8.585707000000       2.997186000000
102    2       12.807378000000      11.055490000000       8.403593000000
103    1       13.140611000000      11.174977000000       9.330054000000
104    1       13.725462000000      11.047199000000       7.907184000000
105    2        8.832802000000      12.677725000000      14.348773000000
106    1        9.696397000000      12.321788000000      14.781800000000
107    1        4.742848000000       4.059544000000      13.821215000000
108    2       13.012574000000       7.356801000000      10.912695000000
109    1       12.317505000000      11.870907000000       4.476851000000
110    1        1.687212000000       1.274489000000      10.595888000000
111    2        7.272797000000       5.945094000000       1.466744000000
112    1        6.598917000000       5.555652000000       0.883306000000
113    1        8.052834000000       5.865011000000       0.890174000000
114    2       14.815994000000      11.856304000000       6.037148000000
115    1       14.123969000000      11.760190000000       5.392062000000
116    1       14.989146000000      12.765066000000       6.347849000000
117    2       12.821550000000       4.570057000000       8.729739000000
118    1       13.689411000000       4.167044000000       8.982476000000
119    1       12.440003000000       3.832332000000       8.191672000000
120    2       10.847283000000       4.966311000000      10.914793000000
121    1       14.624558000000       7.816695000000       3.768847000000
122    1       15.332923000000       7.987095000000      14.105066000000
123    2        7.140494000000       6.807382000000       6.706916000000
124    1       10.225177000000       7.227268000000       3.264147000000
125    1        5.748257000000       8.101819000000       6.214463000000
126    2        3.970637000000       7.792271000000       8.712660000000
127    1       14.277531000000       1.303141000000       5.392131000000
128    1       11.336555000000      13.414624000000      12.216576000000
129    2       12.121287000000       1.900411000000       0.819018000000
130    1        0.624597000000       1.889850000000       8.548676000000
131    1        0.075346000000      16.933451000000      13.716966000000
132    2       16.481693000000       2.829950000000       3.977190000000
133    1       15.539959000000       2.840494000000      10.265166000000
134    1       14.375915000000       8.961647000000      14.579889000000
135    2        1.865736000000       8.884281000000       3.422387000000
136    1        2.852826000000       3.371080000000       6.126623000000
137    1        2.672089000000       9.384974000000       3.259830000000
138    2        1.757599000000      15.152959000000       7.669394000000
139    1        1.590950000000      15.333628000000       6.702771000000
140    1        8.771054000000       7.441442000000       6.646046000000
141    2       12.656035000000       6.386222000000      13.509275000000
142    1        8.087302000000       5.807701000000       3.740828000000
143    1       13.480190000000       7.386265000000      10.074797000000
144    2        9.704911000000      16.713877000000      10.416131000000
145    1       15.975636000000       3.008091000000       8.736671000000
146    1        9.997689000000       2.067182000000       7.588072000000
147    2       16.932178000000      13.129362000000      13.025560000000
148    1       16.302761000000      12.994635000000      13.680949000000
149    1       16.737543000000       1.948502000000       4.256450000000
150    2        5.288742000000       3.674986000000       2.635952000000
151    1        9.766556000000      11.400831000000       9.108965000000
152    1       16.638832000000       1.476615000000      11.463129000000
153    2        3.306769000000      10.296849000000       7.157316000000
154    1        3.719225000000      10.434002000000       7.977687000000
155    1        6.310215000000       1.673321000000       7.073913000000
156    2       13.727612000000      11.693110000000      10.928278000000
157    1       14.522132000000      12.207872000000      10.678499000000
158    1       10.715566000000       9.636214000000      17.125319000000
159    2       15.248746000000       9.048851000000       6.190263000000
160    1       12.815325000000      15.251051000000       1.935774000000
161    1       15.282028000000       8.633919000000       7.065897000000
162    2        6.429481000000       5.322110000000      10.203625000000
163    1        0.421209000000       5.352537000000       3.001108000000
164    1        7.199473000000       4.942970000000       9.851025000000
165    2        4.050978000000      12.311588000000       5.185731000000
166    1        4.979177000000      12.180731000000       4.789649000000
167    1        9.803811000000      16.406754000000       9.533427000000
168    2        9.679748000000      14.981768000000      12.756793000000
169    1        9.257969000000      14.171665000000      13.156778000000
170    1       10.127876000000      15.460874000000      13.498078000000
171    2        8.411815000000       3.201144000000      16.572235000000
172    1        8.986157000000       3.710573000000      17.176849000000
173    1       14.057320000000       4.942523000000      14.347638000000
174    2       15.006261000000      14.246158000000       7.835580000000
175    1       14.054997000000      14.316351000000       7.772645000000
176    1       11.711394000000       5.208986000000      10.555726000000
177    2       11.259929000000      16.773560000000       4.363726000000
178    1       10.960459000000      10.014081000000      10.695665000000
179    1       12.331506000000       8.077051000000      10.992555000000
180    2        1.675099000000       7.470080000000       5.832899000000
181    1        6.555677000000       0.395978000000      10.418366000000
182    1        2.973725000000      11.785818000000      13.911670000000
183    2        0.761293000000       7.571044000000       1.442906000000
184    1        0.911161000000       0.761191000000      15.624119000000
185    1        8.473476000000      15.115842000000       4.383747000000
186    2       12.376277000000       8.323940000000       7.794111000000
187    1        7.267774000000       6.300583000000       5.863033000000
188    1       13.031734000000       7.911432000000       8.332299000000
189    2        1.867524000000      10.811627000000      10.731665000000
190    1       15.433250000000       8.349740000000       9.550386000000
191    1        2.779056000000      15.191384000000      14.556669000000
192    2       15.967465000000      14.966494000000      16.059227000000
193    1        5.933140000000       2.691748000000      11.464918000000
194    1       15.262076000000      15.421623000000      16.621134000000
195    2        3.958855000000       3.658904000000      14.318914000000
196    1        0.201412000000       3.752524000000       2.799248000000
197    1        7.027129000000       1.137120000000       1.417913000000
198    2        5.018065000000      12.881682000000       1.547123000000
199    1       11.589033000000       2.714762000000       1.031443000000
200    1       11.776393000000      15.174338000000       7.442939000000
201    2       17.049828000000       2.762492000000       0.412948000000
202    1       16.173830000000       2.529363000000       0.114696000000
203    1        5.759661000000       9.667569000000      16.093266000000
204    2        0.910774000000      12.773132000000       9.211082000000
205    1        1.391838000000      12.091359000000       9.784185000000
206    1        1.429714000000      13.601588000000       9.021778000000
207    2        9.034351000000       2.192346000000       7.527184000000
208    1        4.166356000000       2.713678000000      14.400115000000
209    1        2.650830000000      15.380808000000       7.917745000000
210    2       15.859707000000      16.555223000000       7.222194000000
211    1        5.495022000000      13.001497000000       0.757966000000
212    1       16.679821000000      16.922684000000       7.551746000000
213    2       15.438118000000       8.273870000000       3.393010000000
214    1       15.750900000000       8.941299000000       3.964290000000
215    1       14.113718000000      10.981684000000      11.405682000000
216    2       13.307433000000      14.272302000000      12.949845000000
217    1        9.389704000000      10.177515000000       1.556975000000
218    1       14.071199000000      13.131220000000      14.218896000000
219    2        1.874164000000      15.385434000000       5.006318000000
220    1        1.976383000000      14.545885000000       4.477487000000
221    1        2.790167000000      15.748268000000       5.091372000000
222    2        8.572996000000      13.420834000000       1.500913000000
223    1       12.815187000000       6.989048000000      14.315010000000
224    1        8.004501000000      12.779909000000       1.005921000000
225    2       14.661297000000      12.642396000000      14.859218000000
226    1        7.668672000000      16.997349000000       6.553320000000
227    1        7.802522000000      13.860052000000       4.987535000000
228    2       10.558873000000       4.504542000000       0.842645000000
229    1       16.616972000000      13.641269000000      10.198792000000
230    1       14.549153000000       5.852953000000      16.275930000000
231    2        9.424637000000       7.367758000000       3.742531000000
232    1       15.685127000000      14.067329000000      15.818806000000
233    1        6.686001000000       6.222616000000       7.340788000000
234    2       17.003662000000      10.361899000000       4.330358000000
235    1       11.077849000000       0.561587000000      10.424817000000
236    1        2.267252000000      10.168967000000       7.161306000000
237    2        6.737584000000      17.125799000000       6.743724000000
238    1        6.616891000000      16.743425000000       7.611241000000
239    1       17.008169000000      11.172518000000       3.742978000000
240    2        9.355974000000       2.884388000000       4.547009000000
241    1        3.783432000000       0.737409000000      10.328428000000
242    1        8.775044000000       3.719345000000       4.614708000000
243    2        4.393413000000      10.311795000000      10.089159000000
244    1        4.597147000000       9.388638000000       9.955790000000
245    1       10.908911000000      16.773577000000       5.912431000000
246    2        6.428259000000      10.905024000000       4.782340000000
247    1        3.443956000000      10.330423000000      10.390090000000
248    1        4.434590000000       3.159090000000       2.573447000000
249    2        3.740346000000      14.665648000000      10.059454000000
250    1       15.641491000000       7.069114000000       8.581596000000
251    1        5.271766000000      16.530025000000       5.271714000000
252    2        1.112694000000      15.507847000000      13.043242000000
253    1       15.618941000000      15.672278000000       7.672610000000
254    1        0.376207000000      14.889215000000      13.136362000000
255    2        5.333943000000       5.015623000000       7.943235000000
256    1        5.593457000000       4.100171000000       7.698066000000
257    1        5.467657000000       5.045603000000       8.887515000000
258    2        1.428013000000       0.993315000000      16.451662000000
259    1       13.685094000000       5.267930000000       1.202098000000
260    1        2.255556000000       1.225963000000      16.075773000000
261    2        0.214250000000      12.727674000000       6.214498000000
262    1        9.241284000000       7.180777000000      13.630157000000
263    1        0.859771000000      12.902597000000       5.513288000000
264    2        8.493171000000      14.116522000000       4.400379000000
265    1       14.653901000000       3.049113000000      16.010414000000
266    1       10.044370000000      11.458709000000       0.751277000000
267    2       11.325649000000      12.461710000000      12.132192000000
268    1        0.092785000000       8.086803000000       0.444895000000
269    1       12.221253000000      12.269327000000      11.773005000000
270    2       12.945029000000      10.291139000000       2.125559000000
271    1       12.615942000000      10.764654000000       1.457101000000
272    1       12.913106000000       1.771497000000       7.297616000000
273    2       12.032380000000       1.995888000000       7.695349000000
274    1        0.363985000000       8.436015000000      10.301664000000
275    1       10.268280000000       4.535605000000      10.280766000000
276    2        5.297703000000       8.750758000000       5.684617000000
277    1        4.408566000000       8.946631000000       6.087097000000
278    1       12.290122000000       9.728389000000       2.506676000000
279    2       14.525796000000       8.803579000000       0.417115000000
280    1        1.424170000000       2.839238000000      12.562553000000
281    1       14.334359000000       9.107434000000       1.348948000000
282    2        1.971292000000       0.076004000000       1.691844000000
283    1        1.731851000000       0.402413000000       0.811649000000
284    1        2.870903000000      16.933762000000       1.630428000000
285    2        0.904300000000       9.737402000000       7.004253000000
286    1       16.489622000000       5.616780000000       0.129276000000
287    1        0.670465000000       9.486247000000       7.934394000000
288    2        3.188708000000       2.591472000000       5.704019000000
289    1        2.498248000000       1.989094000000       5.987337000000
290    1        6.013017000000      10.132021000000       5.165779000000
291    2        8.125865000000       4.207584000000      13.946241000000
292    1        8.218470000000       3.369583000000      13.423758000000
293    1        8.295371000000       3.869002000000      14.890814000000
294    2        4.203680000000      10.447349000000       2.794656000000
295    1        5.140357000000       4.494962000000       2.122136000000
296    1       11.897378000000       1.552186000000      13.536572000000
297    2       12.477362000000      15.335073000000       1.039432000000
298    1        8.194854000000      13.493142000000       2.390439000000
299    1        0.325324000000       2.328123000000       7.213732000000
300    2        0.096283000000       5.053102000000      14.451870000000
301    1        6.813350000000       5.004873000000       3.957101000000
302    1       16.015265000000       6.273081000000      11.939122000000
303    2        6.615860000000       0.964557000000       2.309582000000
304    1        6.141879000000       1.803902000000       2.450089000000
305    1        6.326607000000       5.408024000000      14.058764000000
306    2        0.044330000000       9.314436000000      10.095196000000
307    1        9.620097000000      14.171820000000       8.525920000000
308    1        8.513983000000       2.900797000000      10.432626000000
309    2        5.361309000000       9.816900000000      15.221725000000
310    1        3.331176000000       8.472273000000       8.414326000000
311    1       16.413065000000      13.475530000000       2.260957000000
312    2        5.768003000000      16.784258000000      15.192261000000
313    1        4.949438000000      16.311035000000      15.111748000000
314    1        6.066922000000      16.902456000000      14.271218000000
315    2       15.018025000000       7.767623000000       8.930773000000
316    1        7.185128000000      15.345203000000       9.066602000000
317    1        0.896445000000      17.171896000000       4.537343000000
318    2        4.106878000000       5.776809000000       1.306285000000
319    1       16.419910000000      13.545362000000      12.254536000000
320    1        4.309718000000       6.366546000000       2.008788000000
321    2        7.118959000000      13.269422000000       6.855920000000
322    1        0.765302000000      14.607238000000      17.015841000000
323    1        8.402837000000       7.709281000000      11.263609000000
324    2       13.146510000000       4.887879000000       1.890091000000
325    1       12.249651000000       4.702497000000       1.467881000000
326    1       11.867174000000       0.265448000000       4.196662000000
327    2        7.553896000000      11.673003000000      16.702679000000
328    1        8.057444000000      11.935458000000      15.934166000000
329    1        7.101571000000      11.095100000000       5.433445000000
330    2        1.266142000000       4.022650000000       9.530365000000
331    1        2.132576000000       4.257361000000      10.030403000000
332    1        7.722731000000      10.725954000000      16.835119000000
333    2       16.659025000000       0.118247000000      14.375502000000
334    1       16.662121000000      16.584583000000      14.997935000000
335    1       13.795415000000       3.989334000000       3.301609000000
336    2        6.342500000000      15.798698000000       9.030258000000
337    1        5.748085000000      15.101411000000       8.814226000000
338    1        1.751356000000      11.055077000000      11.674982000000
339    2       14.969453000000       6.053368000000      17.149691000000
340    1        2.190300000000       4.653116000000       7.888883000000
341    1       13.853637000000      16.294386000000       0.624167000000
342    2        5.745522000000       3.512188000000      11.967829000000
343    1       12.335823000000       9.217807000000       8.308099000000
344    1        6.291691000000       4.260423000000      11.601882000000
345    2       11.968981000000       1.055537000000      10.271616000000
346    1       12.604126000000       2.512628000000       4.042533000000
347    1        0.542925000000       9.859298000000       3.946110000000
348    2        0.238710000000      15.955201000000      10.123318000000
349    1        0.131649000000      16.898829000000      10.159817000000
350    1        7.566366000000       9.921700000000       3.028972000000
351    2        3.399150000000       4.505024000000      11.344140000000
352    1        3.691653000000       5.356424000000      11.605356000000
353    1        4.172720000000       3.931628000000      11.508039000000
354    2        6.105587000000      14.028578000000      15.153544000000
355    1        6.963076000000      13.637467000000      15.343294000000
356    1        7.539551000000       9.128263000000       0.966645000000
357    2       10.992434000000       4.633869000000      14.757274000000
358    1       10.125055000000       4.518836000000      14.401491000000
359    1       11.487948000000       5.281398000000      14.210038000000
360    2       16.615578000000       5.977516000000       7.926689000000
361    1        6.278739000000      14.963071000000      15.455336000000
362    1        4.753856000000      11.050708000000       2.304645000000
363    2       14.315869000000       1.473928000000       6.354850000000
364    1       16.210192000000       6.863195000000       3.808837000000
365    1        6.755627000000       9.940844000000      14.133326000000
366    2       14.549067000000       2.264019000000      16.588764000000
367    1        2.939514000000      15.224597000000      16.155392000000
368    1       15.128225000000      13.840926000000       8.654507000000
369    2        5.251607000000       7.934876000000       3.076031000000
370    1        6.750793000000      15.648285000000      11.980729000000
371    1       12.610610000000      14.491138000000       0.588015000000
372    2       16.815615000000       8.498176000000      16.706446000000
373    1        0.146685000000       8.778003000000      15.912683000000
374    1        9.724519000000       5.840071000000      11.772007000000
375    2        1.616991000000      14.627310000000       0.251521000000
376    1       13.776048000000       2.433318000000      17.175852000000
377    1        1.547291000000      15.296975000000       0.953926000000
378    2        8.558771000000      16.861521000000       4.044391000000
379    1        9.475153000000      16.965788000000       3.729940000000
380    1       15.876253000000       8.731563000000      16.775297000000
381    2       15.244583000000      16.464684000000       4.367321000000
382    1       15.659758000000      16.474882000000       5.253637000000
383    1       15.989447000000      16.481230000000       3.699273000000
384    2       14.008076000000      16.477669000000      11.485679000000
385    1       14.851908000000       0.756676000000       6.744636000000
386    1       13.745535000000       8.975751000000      17.139662000000
387    2       12.983919000000      13.060287000000      17.058617000000
388    1       12.452731000000      12.559371000000      16.436956000000
389    1       13.809106000000      13.059582000000      16.535891000000
390    2        9.018167000000      14.765736000000       8.032434000000
391    1        2.277572000000       6.789133000000       6.165271000000
392    1        9.625670000000      15.268853000000       7.554137000000
393    2        7.563648000000       5.364061000000       4.438374000000
394    1       14.285391000000      11.706011000000      14.884174000000
395    1        8.037560000000       9.164125000000      13.870356000000
396    2        7.869843000000       7.960504000000      10.486410000000
397    1        6.427365000000       1.622436000000       9.479729000000
398    1        5.520839000000       8.024161000000       4.026382000000
399    2       15.852001000000      12.640039000000       2.326610000000
400    1        0.653196000000       7.205080000000      12.185959000000
401    1        2.825943000000      12.551597000000       4.116717000000
402    2        9.354116000000      10.524869000000       9.343814000000
403    1        6.669042000000       6.165426000000      10.509406000000
404    1       14.731955000000      17.064774000000      11.635903000000
405    2        2.734783000000       2.759207000000       3.014558000000
406    1       15.499745000000       1.600525000000      12.667507000000
407    1        4.667530000000       9.554428000000       2.742901000000