ITEM: TIMESTEP
0
ITEM: NUMBER OF ATOMS
518
ITEM: BOX BOUNDS pp pp pp
0.0000000000000000e+00 1.7199999999999999e+01
0.0000000000000000e+00 1.7199999999999999e+01
0.0000000000000000e+00 1.7199999999999999e+01
ITEM: ATOMS id type xs ys zs
12 2 0.242402 0.100596 0.0626736
39 2 0.237853 0.24155 0.00249302
64 1 0.00839442 0.096639 0.183211
86 1 0.184248 0.0429966 0.240239
134 1 0.240039 0.0607057 0.0224965
147 2 0.0452747 0.0723611 0.0847581
148 1 0.0162108 0.0990416 0.0457971
229 1 0.237009 0.18882 0.0254271
296 1 0.0374286 0.0175629 0.0777689
373 1 0.00256895 0.236057 0.228235
382 1 0.21199 0.0802531 0.104906
123 2 0.401115 0.0506255 0.243768
177 2 0.414162 0.136447 0.0675319
233 1 0.406852 0.0996362 0.215963
326 1 0.407808 0.19007 0.0879765
463 1 0.363351 0.11271 0.0768968
159 2 0.68994 0.0831581 0.199231
161 1 0.636513 0.0941163 0.182184
419 1 0.726256 0.0830605 0.153609
420 2 0.556867 0.0999718 0.106999
421 1 0.501138 0.113168 0.0935343
422 1 0.581214 0.0761036 0.0577476
501 1 0.737511 0.144517 0.018232
503 2 0.632302 0.246956 0.173136
504 1 0.598651 0.212779 0.140119
181 1 0.938267 0.119716 0.236535
196 1 0.754293 0.202354 0.246919
216 2 0.794458 0.243212 0.234951
300 2 0.992186 0.128283 0.226522
359 1 0.851449 0.122566 0.0608526
426 2 0.811953 0.0891698 0.08693
446 1 0.835287 0.0386868 0.0892443
40 1 0.231185 0.301576 0.177754
99 2 0.0179997 0.289585 0.228499
184 1 0.120369 0.273857 0.240596
303 2 0.2325 0.467823 0.0557419
304 1 0.232935 0.42108 0.0873629
176 1 0.332421 0.495436 0.00777424
191 1 0.45242 0.433078 0.0719693
213 2 0.412757 0.275545 0.138023
214 1 0.355751 0.290498 0.130691
325 1 0.44533 0.306103 0.0146011
333 2 0.267407 0.314484 0.134391
334 1 0.252502 0.279773 0.0895475
367 1 0.456747 0.374385 0.135722
429 2 0.475817 0.425989 0.122207
434 1 0.411245 0.264944 0.193567
151 1 0.571321 0.449232 0.106464
168 2 0.625331 0.455457 0.124801
170 1 0.641483 0.499849 0.0923071
173 1 0.714803 0.397235 0.113758
251 1 0.674557 0.498811 0.221365
505 1 0.634053 0.292292 0.141974
101 1 0.993321 0.31267 0.185113
171 2 0.75689 0.35977 0.114952
172 1 0.766794 0.345448 0.0591128
369 2 0.97471 0.311198 0.00214785
371 1 0.955363 0.338924 0.0474515
439 1 0.766064 0.278221 0.199521
473 2 0.906107 0.380392 0.143504
474 1 0.848266 0.374002 0.136669
475 1 0.91941 0.432237 0.149776
49 1 0.185043 0.63847 0.127315
66 2 0.238934 0.727896 0.0775682
102 2 0.0371522 0.519659 0.203713
104 1 0.00357744 0.560913 0.225916
140 1 0.0302436 0.721394 0.137933
305 1 0.207569 0.509418 0.0880032
423 2 0.169762 0.58644 0.142586
424 1 0.119578 0.57748 0.171185
69 2 0.322144 0.557692 0.213465
70 1 0.268404 0.55899 0.192115
71 1 0.350893 0.526983 0.176639
290 1 0.288364 0.712105 0.0560554
298 1 0.390636 0.639219 0.0224001
450 1 0.410325 0.678984 0.23049
27 2 0.565015 0.683687 0.0357689
29 1 0.540108 0.68252 0.0873234
250 1 0.740602 0.55796 0.246026
306 2 0.748855 0.720633 0.0994919
351 2 0.608302 0.698648 0.202053
352 1 0.572692 0.688945 0.24278
469 1 0.695508 0.704221 0.0974388
479 2 0.660963 0.565242 0.0245773
480 1 0.644199 0.619675 0.0320511
30 2 0.960203 0.644562 0.112793
31 1 0.915898 0.623619 0.144174
32 1 0.9351 0.677379 0.073652
187 1 0.786846 0.646039 0.139087
241 1 0.995801 0.5458 0.00141622
337 1 0.798568 0.563939 0.104729
515 2 0.806589 0.595796 0.150222
34 1 0.0755088 0.752997 0.207853
83 1 0.248674 0.767505 0.11571
109 1 0.112611 0.935048 0.174378
315 2 0.0507749 0.896979 0.0906804
336 2 0.0778769 0.750886 0.153712
346 1 0.0726491 0.889719 0.0395084
418 1 0.223593 0.885921 0.205563
451 1 0.217434 0.872196 0.0012364
507 1 0.0517516 0.847349 0.114031
509 2 0.146555 0.94495 0.216945
141 2 0.273477 0.91141 0.0367667
149 1 0.419151 0.915996 0.210822
166 1 0.422084 0.797767 0.0447948
223 1 0.270454 0.89771 0.0922095
237 2 0.417017 0.851347 0.0302878
238 1 0.452407 0.881477 0.0691403
374 1 0.321994 0.888557 0.0162843
417 2 0.269962 0.858363 0.185609
516 1 0.313037 0.872628 0.219729
81 2 0.516475 0.933379 0.129148
89 1 0.565473 0.902599 0.135442
137 1 0.53267 0.985489 0.113339
353 1 0.616275 0.754342 0.2048
485 2 0.644586 0.861714 0.178573
486 1 0.665499 0.886614 0.228986
487 1 0.685435 0.86654 0.139976
52 1 0.89423 0.95329 0.0213712
207 2 0.894529 0.75873 0.00547238
274 1 0.753857 0.772813 0.0832959
295 1 0.903381 0.880919 0.244632
390 2 0.877908 0.778848 0.212796
391 1 0.873056 0.760263 0.160986
392 1 0.831651 0.760664 0.239761
452 2 0.883489 0.950913 0.0774612
454 1 0.931319 0.931162 0.105463
497 2 0.754899 0.867075 0.056593
498 1 0.803308 0.887339 0.0738378
17 1 0.0888598 0.222539 0.426858
84 2 0.203863 0.0914667 0.265086
112 1 0.185812 0.208089 0.258846
414 2 0.0703645 0.0962097 0.384363
415 1 0.0772223 0.111432 0.330827
416 1 0.109773 0.0559047 0.394828
488 2 0.19652 0.0212333 0.460995
33 2 0.356751 0.155073 0.417818
155 1 0.259444 0.0809695 0.271316
192 2 0.453772 0.0324509 0.415233
194 1 0.420765 0.0778987 0.420186
206 1 0.315697 0.170293 0.451898
215 1 0.409213 0.0588845 0.298766
335 1 0.367213 0.194484 0.374924
11 3 0.713379 0.0366854 0.304745
16 1 0.65916 0.0520562 0.449628
45 2 0.579606 0.0290067 0.300784
46 1 0.54743 0.0307969 0.346516
47 1 0.542097 0.0206697 0.261447
114 2 0.701763 0.154254 0.342661
115 1 0.727557 0.174254 0.386682
116 1 0.650674 0.176633 0.344254
220 1 0.529399 0.0780506 0.476784
257 1 0.613906 0.200509 0.497378
261 2 0.692922 0.0136278 0.428517
493 1 0.582618 0.248999 0.263215
234 2 0.833921 0.0481057 0.314513
239 1 0.855952 0.0622796 0.36402
363 2 0.92066 0.0614116 0.437022
365 1 0.945626 0.0157415 0.457233
404 1 0.965792 0.0874995 0.41119
464 2 0.795874 0.181058 0.465125
465 1 0.819228 0.231452 0.476438
466 1 0.838497 0.147854 0.453237
15 2 0.0996835 0.253052 0.474169
95 1 0.126527 0.298589 0.44833
183 2 0.175938 0.262942 0.256166
190 1 0.0601003 0.497434 0.252783
252 2 0.0808377 0.429763 0.328466
254 1 0.0652097 0.448807 0.379833
308 1 0.197861 0.40408 0.361524
377 1 0.230622 0.323393 0.347919
402 2 0.23286 0.365828 0.384251
435 2 0.0736713 0.498209 0.457504
443 1 0.0666602 0.377229 0.317539
160 1 0.352284 0.421261 0.323912
278 1 0.406354 0.321545 0.304793
289 1 0.432252 0.444807 0.360561
297 2 0.409493 0.418634 0.315762
320 1 0.467618 0.26699 0.308601
364 1 0.419101 0.251986 0.489359
380 1 0.276305 0.386229 0.492368
438 2 0.412612 0.264121 0.301613
512 2 0.469791 0.443462 0.456861
513 1 0.465494 0.492228 0.484116
35 1 0.593898 0.299954 0.333909
96 2 0.565475 0.25465 0.317757
255 2 0.634271 0.25232 0.49939
265 1 0.669095 0.410116 0.421186
366 2 0.616262 0.389926 0.421179
368 1 0.624592 0.336932 0.450175
508 1 0.527781 0.434133 0.454573
270 2 0.886703 0.305456 0.339333
271 1 0.931164 0.320676 0.308149
272 1 0.85996 0.275258 0.298852
403 1 0.802614 0.376891 0.470315
462 1 0.829005 0.401192 0.349123
494 2 0.788913 0.430159 0.36964
496 1 0.765855 0.448593 0.321343
113 1 0.230149 0.714775 0.48787
120 2 0.0277966 0.643534 0.428733
122 1 0.0112437 0.691852 0.450383
210 2 0.198495 0.570196 0.371829
211 1 0.201367 0.624486 0.364045
283 1 0.0702363 0.717239 0.367981
307 1 0.184888 0.63976 0.476769
492 1 0.148513 0.555062 0.388111
510 1 0.0428478 0.543157 0.463455
61 1 0.414641 0.717225 0.308942
78 2 0.253344 0.739644 0.349412
80 1 0.30179 0.740961 0.375735
180 2 0.375715 0.588666 0.431758
217 1 0.363024 0.561729 0.484351
273 2 0.385156 0.746041 0.412806
275 1 0.391679 0.694263 0.435491
332 1 0.333921 0.578351 0.397304
383 1 0.459247 0.588078 0.358043
449 2 0.413606 0.729002 0.254756
38 1 0.520355 0.55133 0.310208
153 2 0.60698 0.697146 0.420605
154 1 0.565142 0.666163 0.398463
200 1 0.718434 0.680019 0.341109
203 1 0.665046 0.651454 0.499662
249 2 0.714489 0.512038 0.260969
279 2 0.741409 0.680721 0.290106
280 1 0.697973 0.674005 0.253834
318 2 0.509502 0.597606 0.339355
445 1 0.60753 0.748802 0.405461
57 2 0.91228 0.623469 0.297588
58 1 0.920715 0.676596 0.27777
59 1 0.856614 0.617002 0.301312
67 1 0.821771 0.510219 0.447819
75 2 0.823325 0.723631 0.440317
121 1 0.983175 0.634195 0.390141
218 1 0.821287 0.667311 0.448644
321 2 0.830147 0.550244 0.491087
440 1 0.791784 0.740647 0.483604
105 2 0.0621225 0.917583 0.344652
106 1 0.06413 0.94772 0.391951
204 2 0.0127882 0.937844 0.497728
282 2 0.0894085 0.761717 0.335379
284 1 0.145559 0.764545 0.344293
430 1 0.0533229 0.862123 0.362178
489 1 0.227575 0.989146 0.424962
511 1 0.116115 0.931426 0.262541
62 1 0.34093 0.919593 0.360644
79 1 0.262889 0.75044 0.2944
136 1 0.420188 0.831265 0.259
288 2 0.402773 0.882204 0.25699
291 2 0.31839 0.934419 0.411446
292 1 0.319378 0.89074 0.449255
375 2 0.491492 0.850798 0.467275
401 1 0.421717 0.986082 0.424648
459 1 0.419782 0.783295 0.440208
82 1 0.670622 0.875437 0.367518
135 2 0.64258 0.850292 0.412033
164 1 0.679241 0.840051 0.457612
263 1 0.664981 0.964781 0.424389
285 2 0.718689 0.919624 0.300868
376 1 0.549145 0.852561 0.455316
145 1 0.963427 0.925765 0.293242
287 1 0.760685 0.892771 0.283565
347 1 0.859673 0.99863 0.300644
393 2 0.982641 0.790926 0.481349
394 1 0.929668 0.780143 0.477647
408 2 0.920981 0.93087 0.254511
481 1 0.989509 0.886313 0.494593
13 1 0.0104945 0.192162 0.657864
44 1 0.0862804 0.113512 0.738775
54 2 0.233767 0.170226 0.530509
55 1 0.218421 0.115869 0.512497
56 1 0.190846 0.204418 0.526408
169 1 0.161693 0.145429 0.692336
381 2 0.105485 0.151988 0.703044
425 1 0.117709 0.0431426 0.620181
68 1 0.275765 0.0140615 0.670841
76 1 0.297722 0.170854 0.712737
126 2 0.257337 0.141131 0.681691
127 1 0.266473 0.159127 0.629306
219 2 0.578216 0.0923263 0.500352
256 1 0.688568 0.248891 0.516189
267 2 0.572001 0.0464119 0.656224
269 1 0.532542 0.0786727 0.68299
340 1 0.575357 0.0690079 0.551291
410 1 0.737259 0.218355 0.700612
73 1 0.950492 0.23759 0.611719
108 2 0.956062 0.198814 0.650316
317 1 0.786983 0.117012 0.636132
412 1 0.86411 0.0396589 0.712947
482 2 0.830372 0.0829299 0.627808
483 1 0.872559 0.114084 0.612999
50 1 0.185125 0.490609 0.602087
125 1 0.0266087 0.305335 0.529495
221 1 0.223581 0.454261 0.745037
362 1 0.0326726 0.427462 0.721377
436 1 0.0862628 0.489244 0.510195
124 1 0.456922 0.407806 0.710661
130 1 0.3193 0.490983 0.586572
150 2 0.275542 0.466865 0.726521
231 2 0.417994 0.375136 0.683176
248 1 0.288857 0.421623 0.695076
313 1 0.384048 0.267074 0.744067
378 2 0.277573 0.380344 0.548913
379 1 0.314546 0.339797 0.557921
431 1 0.457269 0.360981 0.64558
432 2 0.421744 0.289413 0.531396
514 1 0.44963 0.335749 0.515858
36 2 0.576099 0.346874 0.63459
37 1 0.576577 0.302266 0.595691
195 2 0.73227 0.251117 0.655437
253 1 0.61559 0.333287 0.672287
385 1 0.581305 0.458853 0.607249
77 1 0.762861 0.425392 0.691224
110 1 0.900632 0.254776 0.723339
162 2 0.820446 0.347009 0.514991
182 1 0.875176 0.349651 0.513559
197 1 0.766582 0.29391 0.666797
232 1 0.992577 0.349189 0.602763
311 1 0.956567 0.470184 0.693475
399 2 0.98008 0.417507 0.70243
441 2 0.811181 0.402184 0.67917
442 1 0.814745 0.39815 0.621266
500 2 0.977852 0.321936 0.554091
42 2 0.066292 0.712512 0.58752
43 1 0.0443186 0.664675 0.603982
48 2 0.154619 0.536944 0.596341
85 1 0.195166 0.574421 0.59801
345 2 0.198947 0.678466 0.515947
397 1 0.119368 0.697509 0.566173
129 2 0.344733 0.539558 0.579361
209 1 0.374061 0.552907 0.626718
268 1 0.488086 0.56921 0.688152
350 1 0.392285 0.717074 0.691588
372 2 0.44792 0.603108 0.706073
158 1 0.725563 0.720215 0.699866
309 2 0.697533 0.622334 0.535836
310 1 0.703341 0.655515 0.580175
339 2 0.691739 0.524914 0.722407
341 1 0.694614 0.580542 0.714235
409 1 0.577789 0.698611 0.596121
453 1 0.612798 0.530734 0.563261
456 1 0.636686 0.514775 0.712329
506 2 0.569285 0.512473 0.594806
18 2 0.948777 0.568141 0.631988
19 1 0.932852 0.619309 0.640991
20 1 0.924918 0.555371 0.580487
24 2 0.898705 0.734371 0.716563
25 1 0.93894 0.715568 0.74994
156 2 0.75482 0.673678 0.687001
262 1 0.805692 0.685466 0.700087
322 1 0.780977 0.559757 0.517098
90 2 0.126288 0.988693 0.60434
91 1 0.139268 0.954334 0.647287
98 1 0.153561 0.833995 0.727044
100 1 0.228622 0.862208 0.590669
205 1 0.0489934 0.944134 0.543818
266 1 0.10563 0.79881 0.658334
276 2 0.126714 0.847898 0.676276
301 1 0.00906977 0.775066 0.527671
428 1 0.0198036 0.862825 0.708174
490 1 0.189725 0.99251 0.506218
60 2 0.296638 0.966132 0.693022
143 1 0.31242 0.933649 0.650993
167 1 0.477268 0.860698 0.682139
389 1 0.308024 0.807066 0.597917
444 2 0.283601 0.849381 0.569268
467 2 0.378997 0.769285 0.685628
468 1 0.366483 0.791956 0.733675
517 1 0.480346 0.889882 0.507558
21 2 0.671079 0.801907 0.707307
22 1 0.626742 0.781945 0.735866
23 1 0.688343 0.849672 0.737581
128 1 0.548634 0.9929 0.666411
165 2 0.521867 0.891073 0.662224
185 1 0.653733 0.993102 0.742359
189 2 0.578684 0.755371 0.597322
246 2 0.721014 0.831833 0.541918
302 1 0.555925 0.770361 0.547973
329 1 0.688151 0.814742 0.586238
400 1 0.560644 0.857752 0.647394
407 1 0.5055 0.772652 0.715291
51 2 0.854711 0.903814 0.596148
92 1 0.897445 0.900716 0.631206
97 1 0.841604 0.959851 0.590655
188 1 0.919727 0.974093 0.749348
247 1 0.772206 0.851668 0.567015
338 1 0.9059 0.788239 0.714457
405 2 0.980059 0.885139 0.740288
7 4 0.127275 0.0235628 0.895892
8 2 0.212148 0.0530952 0.915459
9 2 0.128268 0.00950012 0.804721
10 2 0.0621765 0.0767342 0.91425
319 1 0.122341 0.240697 0.784821
470 2 0.100157 0.229334 0.957967
471 1 0.0871907 0.174865 0.953978
518 1 0.18257 0.245919 0.995497
131 1 0.251112 0.0241468 0.888933
240 2 0.48748 0.0046725 0.889723
242 1 0.490837 0.0454912 0.850402
312 2 0.354604 0.227163 0.763812
314 1 0.337462 0.247749 0.812855
384 2 0.492319 0.129057 0.795269
433 1 0.439585 0.147355 0.782387
72 2 0.714508 0.168142 0.971283
74 1 0.739238 0.219354 0.970632
93 2 0.610995 0.0167645 0.985825
117 2 0.580095 0.209415 0.903226
118 1 0.538434 0.240493 0.928227
119 1 0.613585 0.18842 0.942545
236 1 0.729156 0.146646 0.830494
386 1 0.560097 0.0154484 0.957035
460 1 0.516099 0.164542 0.830296
111 2 0.756852 0.141927 0.782872
193 1 0.809282 0.139575 0.79973
222 2 0.882835 0.0138603 0.761967
293 1 0.917337 0.136015 0.949414
327 2 0.935399 0.164866 0.994873
328 1 0.942607 0.21679 0.983967
342 2 0.940794 0.150561 0.836095
343 1 0.926641 0.100334 0.819071
344 1 0.984811 0.141865 0.871443
361 1 0.91294 0.240863 0.80686
495 1 0.952871 0.000299186 0.914505
63 2 0.116243 0.420586 0.783774
65 1 0.128938 0.365227 0.794651
142 1 0.127769 0.265465 0.868498
243 2 0.146635 0.279502 0.81797
245 1 0.177419 0.487533 0.965854
395 1 0.114961 0.446574 0.832175
448 1 0.0118011 0.381006 0.857623
458 2 0.150777 0.494892 0.919104
472 1 0.0576321 0.260568 0.982384
175 1 0.406301 0.494342 0.949641
186 2 0.322273 0.329209 0.903761
244 1 0.29025 0.296174 0.940116
286 1 0.422895 0.326709 0.931364
316 1 0.384287 0.493309 0.789005
324 2 0.467777 0.309736 0.963482
484 1 0.292373 0.37389 0.883191
107 1 0.565624 0.426372 0.940845
281 1 0.681851 0.363196 0.814964
294 2 0.541448 0.479396 0.941864
323 1 0.569259 0.416793 0.775385
387 2 0.632223 0.339473 0.810402
388 1 0.629413 0.293679 0.839911
476 2 0.534333 0.459865 0.778435
477 1 0.538073 0.47242 0.834412
1 3 0.882201 0.402908 0.792832
26 1 0.797147 0.346544 0.928099
226 1 0.983212 0.493118 0.92623
330 2 0.792954 0.400607 0.85689
331 1 0.775268 0.451065 0.876037
360 2 0.88514 0.280655 0.773592
398 1 0.964382 0.353669 0.954434
411 2 0.79872 0.30776 0.972164
437 1 0.851937 0.303598 0.986687
447 2 0.968893 0.401777 0.882861
14 1 0.116658 0.706186 0.854516
228 2 0.144711 0.735359 0.893036
258 2 0.242586 0.596745 0.828222
259 1 0.241626 0.647051 0.849687
260 1 0.207517 0.56712 0.858836
478 1 0.102768 0.519157 0.938584
174 2 0.387867 0.503886 0.99912
178 1 0.426286 0.585037 0.755877
198 2 0.494016 0.639946 0.88857
201 2 0.384643 0.688536 0.996091
202 1 0.413351 0.66928 0.94756
212 1 0.496034 0.662157 0.835341
406 1 0.49513 0.582986 0.879891
455 2 0.389861 0.527768 0.833354
457 1 0.340039 0.556621 0.832382
28 1 0.530112 0.669093 0.993084
53 1 0.574974 0.514605 0.971438
144 2 0.740504 0.580368 0.875005
146 1 0.703688 0.571351 0.833747
502 1 0.691101 0.571746 0.97834
41 1 0.981266 0.653234 0.8787
94 1 0.809524 0.73077 0.83241
179 1 0.993785 0.743978 0.871133
199 1 0.854567 0.547787 0.819297
225 2 0.990239 0.546373 0.944084
299 1 0.941074 0.522292 0.816761
396 2 0.978369 0.696526 0.841861
413 1 0.757274 0.634694 0.86939
491 2 0.896254 0.52586 0.789121
2 2 0.169375 0.827027 0.982126
3 4 0.11594 0.837647 0.893584
4 2 0.160087 0.859984 0.820371
5 2 0.0295705 0.829563 0.899287
6 2 0.123687 0.937894 0.934367
230 1 0.122551 0.957626 0.78372
235 1 0.184881 0.776014 0.993116
103 1 0.340887 0.986057 0.803759
138 2 0.334946 0.98169 0.861109
139 1 0.325836 0.925218 0.863553
157 1 0.433618 0.99405 0.891283
357 2 0.326744 0.824112 0.840198
358 1 0.271198 0.826717 0.836285
370 1 0.339234 0.806967 0.891232
87 2 0.533376 0.752421 0.762733
88 1 0.52385 0.792609 0.805741
132 2 0.535613 0.860687 0.882718
133 1 0.51395 0.828317 0.92446
224 1 0.510394 0.913558 0.883776
227 1 0.743506 0.993395 0.761941
264 2 0.699214 0.960259 0.757114
277 1 0.619943 0.960854 0.985586
354 2 0.684907 0.889191 0.898956
355 1 0.694501 0.92666 0.859738
356 1 0.632236 0.874375 0.889668
499 1 0.744475 0.873231 0.999806
152 1 0.964495 0.909137 0.920004
163 1 0.932365 0.788 0.972009
208 1 0.852349 0.75375 0.966861
348 2 0.77933 0.750206 0.87546
349 1 0.751745 0.800485 0.867361
427 1 0.986336 0.864585 0.792138
461 2 0.924229 0.951199 0.923494
ITEM: TIMESTEP
10000
ITEM: NUMBER OF ATOMS
518
ITEM: BOX BOUNDS pp pp pp
0.0000000000000000e+00 1.7199999999999999e+01
0.0000000000000000e+00 1.7199999999999999e+01
0.0000000000000000e+00 1.7199999999999999e+01
ITEM: ATOMS id type xs ys zs
64 1 0.122029 0.204628 0.204366
300 2 0.106763 0.205767 0.152978
181 1 0.0524123 0.194127 0.154142
134 1 0.233948 0.178647 0.110073
511 1 0.283686 0.039697 0.183251
12 2 0.28235 0.207628 0.111987
382 1 0.280975 0.227743 0.166212
509 2 0.305867 0.00259989 0.149322
177 2 0.44059 0.169001 0.192592
326 1 0.432376 0.225438 0.183813
463 1 0.401766 0.147424 0.159421
417 2 0.368974 0.0366257 0.013118
418 1 0.344368 0.0274864 0.0606922
421 1 0.519139 0.118827 0.136011
161 1 0.746149 0.145418 0.189399
420 2 0.562023 0.090179 0.10776
422 1 0.540264 0.0391558 0.0920439
47 1 0.612123 0.0427191 0.18558
72 2 0.660572 0.193498 0.0138403
501 1 0.629267 0.149621 0.0356956
504 1 0.685769 0.22296 0.127118
503 2 0.692467 0.230358 0.18193
45 2 0.634299 0.00723398 0.223032
493 1 0.590826 0.246004 0.240423
452 2 0.961136 0.0736314 0.159985
454 1 0.997436 0.0358159 0.145249
159 2 0.763838 0.0895164 0.187412
419 1 0.791106 0.0855495 0.138236
359 1 0.843392 0.130083 0.0092757
426 2 0.840702 0.0876995 0.0471302
439 1 0.88819 0.241631 0.226316
196 1 0.944671 0.16577 0.213277
446 1 0.827538 0.0444017 0.010703
52 1 0.923775 0.0733746 0.115816
216 2 0.925227 0.205739 0.249739
39 2 0.232329 0.325606 0.0197515
373 1 0.104229 0.334852 0.145299
99 2 0.103718 0.382973 0.170422
101 1 0.090653 0.419699 0.13008
184 1 0.188934 0.407585 0.22135
473 2 0.0534395 0.491406 0.0822391
518 1 0.181312 0.301545 0.00338274
229 1 0.250851 0.282107 0.0523549
40 1 0.275531 0.458432 0.1383
334 1 0.287903 0.408429 0.0674438
333 2 0.309021 0.454445 0.0914209
278 1 0.367632 0.351626 0.166064
320 1 0.422822 0.364882 0.234329
438 2 0.409321 0.33084 0.192274
213 2 0.494144 0.359986 0.0354315
214 1 0.457674 0.391201 0.00656096
434 1 0.466975 0.343793 0.082062
505 1 0.728214 0.274265 0.187001
286 1 0.592004 0.398606 0.0653875
324 2 0.637034 0.430173 0.0768789
325 1 0.680471 0.394826 0.0637446
191 1 0.597176 0.443359 0.192349
429 2 0.560824 0.433231 0.233953
437 1 0.728508 0.29076 0.00941712
411 2 0.749595 0.342768 0.0166857
474 1 0.995369 0.488548 0.0799659
172 1 0.809702 0.364507 0.142302
171 2 0.810646 0.342398 0.19438
173 1 0.830012 0.381526 0.231437
168 2 0.893288 0.471831 0.101546
371 1 0.938377 0.372854 0.052315
369 2 0.956035 0.34522 0.00726486
170 1 0.865471 0.48772 0.059087
151 1 0.871814 0.494267 0.147627
475 1 0.0545908 0.525927 0.125187
102 2 0.0606337 0.615657 0.205178
104 1 0.102754 0.639642 0.23467
423 2 0.119085 0.721951 0.00307243
176 1 0.210627 0.611501 0.0580669
187 1 0.0115351 0.673799 0.0693879
457 1 0.17059 0.746517 0.110237
190 1 0.0180667 0.617439 0.240212
70 1 0.261197 0.613707 0.201335
175 1 0.282422 0.555007 0.0675408
174 2 0.259799 0.601788 0.0885869
450 1 0.43146 0.654737 0.170829
449 2 0.445112 0.696892 0.202275
406 1 0.327145 0.667046 0.0533117
28 1 0.456498 0.650833 0.0203043
198 2 0.369421 0.700211 0.0351363
27 2 0.494094 0.611746 0.0121328
53 1 0.657026 0.527852 0.0584712
107 1 0.604043 0.599151 0.067223
352 1 0.545737 0.720107 0.156251
351 2 0.601012 0.720409 0.145503
502 1 0.741478 0.555474 0.15177
353 1 0.600213 0.742684 0.0911675
294 2 0.658142 0.583807 0.0654141
280 1 0.659198 0.678877 0.217656
499 1 0.717726 0.675078 0.0702711
480 1 0.783255 0.598091 0.215019
479 2 0.786957 0.552872 0.182399
337 1 0.937783 0.651297 0.117366
515 2 0.960213 0.691846 0.0862916
497 2 0.752041 0.720763 0.0763816
498 1 0.8054 0.70465 0.0656298
258 2 0.198001 0.77183 0.152903
315 2 0.155961 0.930506 0.151014
507 1 0.127416 0.933027 0.200453
346 1 0.129482 0.958477 0.111719
260 1 0.170722 0.823019 0.154629
461 2 0.0540699 0.983339 0.0373775
152 1 0.0185279 0.937647 0.039644
109 1 0.271702 0.961365 0.152097
238 1 0.343434 0.7907 0.0387558
516 1 0.454839 0.953245 0.023034
202 1 0.434142 0.806162 0.190179
237 2 0.314111 0.839771 0.0568106
201 2 0.431948 0.858101 0.175077
298 1 0.383026 0.855816 0.143742
136 1 0.473562 0.920386 0.100742
166 1 0.268029 0.820652 0.0858069
62 1 0.472521 0.927413 0.241388
288 2 0.500461 0.94148 0.0546932
81 2 0.667742 0.939636 0.0165789
89 1 0.712147 0.900173 0.086662
485 2 0.743894 0.866165 0.12115
224 1 0.557159 0.836784 0.029058
132 2 0.58624 0.795829 0.00407367
149 1 0.6169 0.956504 0.00407964
487 1 0.73773 0.810422 0.115387
486 1 0.76523 0.881867 0.177236
290 1 0.965327 0.772891 0.165377
83 1 0.987241 0.848871 0.216046
66 2 0.944401 0.820336 0.1883
32 1 0.884776 0.837261 0.079574
30 2 0.895401 0.857179 0.0273172
31 1 0.94479 0.840206 0.00910574
415 1 0.112346 0.176685 0.349145
105 2 0.109984 0.0869582 0.38597
106 1 0.16032 0.0684731 0.364473
430 1 0.113616 0.0727358 0.440711
365 1 0.00789984 0.1465 0.431151
414 2 0.109212 0.228448 0.319285
86 1 0.240733 0.218027 0.276001
488 2 0.256459 0.0500766 0.313533
489 1 0.298968 0.0734413 0.340179
233 1 0.439598 0.0277782 0.32449
123 2 0.410328 0.0697327 0.354033
215 1 0.432832 0.115465 0.334648
401 1 0.418409 0.0819025 0.453346
33 2 0.411861 0.232512 0.335603
155 1 0.325436 0.24998 0.287831
335 1 0.460127 0.249821 0.315194
11 3 0.734903 0.0183496 0.276511
16 1 0.681413 0.0131692 0.429902
114 2 0.69978 0.121865 0.334592
116 1 0.705341 0.166931 0.304324
115 1 0.72843 0.13795 0.382575
404 1 0.960475 0.193713 0.374159
239 1 0.874546 0.0917116 0.321736
234 2 0.849348 0.0427807 0.322063
363 2 0.959328 0.175697 0.425661
464 2 0.78943 0.17279 0.453297
465 1 0.846701 0.168036 0.447213
347 1 0.863774 0.027668 0.375486
145 1 0.926715 0.0134712 0.487265
183 2 0.236538 0.409679 0.252721
416 1 0.130764 0.264325 0.359317
377 1 0.179553 0.415345 0.336148
402 2 0.145601 0.40687 0.382163
270 2 0.0127165 0.371416 0.300134
271 1 0.0458913 0.361237 0.253546
308 1 0.0915513 0.404658 0.364874
380 1 0.194597 0.363554 0.460333
272 1 0.0106385 0.319072 0.322845
85 1 0.181964 0.495369 0.459292
84 2 0.275855 0.256966 0.257612
112 1 0.253334 0.354573 0.250131
206 1 0.408834 0.252035 0.389386
297 2 0.415285 0.485319 0.265504
289 1 0.397194 0.482242 0.319573
379 1 0.276755 0.335503 0.489609
160 1 0.472156 0.479628 0.267168
432 2 0.380049 0.290219 0.486174
367 1 0.563999 0.37917 0.250156
35 1 0.590836 0.283244 0.323694
96 2 0.563264 0.283325 0.273401
265 1 0.673912 0.339664 0.423706
366 2 0.62546 0.31035 0.41392
496 1 0.708569 0.464545 0.393565
368 1 0.626552 0.266291 0.451363
494 2 0.74078 0.433806 0.425901
383 1 0.507663 0.472008 0.461273
508 1 0.547379 0.359836 0.465747
252 2 0.866828 0.433416 0.320584
254 1 0.921684 0.421306 0.322832
462 1 0.78332 0.417595 0.393591
443 1 0.861896 0.48804 0.311198
210 2 0.12629 0.629495 0.366491
211 1 0.169721 0.610051 0.337219
492 1 0.0829755 0.593223 0.362408
283 1 0.13926 0.737748 0.336086
122 1 0.00725882 0.628375 0.474998
121 1 0.00372652 0.540908 0.474611
301 1 0.0486363 0.735831 0.490081
69 2 0.268604 0.611725 0.257169
71 1 0.317556 0.586163 0.265768
332 1 0.306396 0.555146 0.426981
307 1 0.288187 0.713302 0.337782
61 1 0.463406 0.675206 0.250494
180 2 0.330847 0.505203 0.41897
273 2 0.479938 0.682596 0.3644
113 1 0.370761 0.721194 0.375748
345 2 0.314564 0.727444 0.386574
275 1 0.490046 0.636998 0.396882
217 1 0.372112 0.505688 0.457088
397 1 0.28628 0.68165 0.474736
459 1 0.513806 0.721632 0.384548
318 2 0.511229 0.524685 0.441514
251 1 0.619978 0.500325 0.299979
250 1 0.649765 0.584691 0.319528
38 1 0.544504 0.526638 0.39487
249 2 0.638588 0.532756 0.341679
279 2 0.685671 0.662881 0.266768
200 1 0.694313 0.708959 0.296378
75 2 0.71389 0.743327 0.492998
120 2 0.97592 0.587956 0.455512
59 1 0.903888 0.661254 0.292986
57 2 0.92739 0.609535 0.296983
58 1 0.946793 0.601873 0.351427
284 1 0.179552 0.766124 0.259855
282 2 0.154638 0.782801 0.307724
34 1 0.0908449 0.866303 0.311854
336 2 0.0523289 0.901775 0.290374
79 1 0.237858 0.84759 0.37903
205 1 0.161159 0.915051 0.482794
140 1 0.0502169 0.94397 0.325892
78 2 0.246794 0.894978 0.407868
481 1 0.0966812 0.858567 0.483569
393 2 0.0487965 0.772312 0.4477
490 1 0.257848 0.997121 0.330617
80 1 0.302405 0.89686 0.425246
291 2 0.493713 0.95359 0.289666
261 2 0.679681 0.977803 0.386254
292 1 0.518863 0.909753 0.315857
46 1 0.586502 0.996806 0.253373
263 1 0.641076 0.941628 0.402824
375 2 0.565686 0.831992 0.393683
82 1 0.739199 0.8462 0.313186
135 2 0.714679 0.798865 0.338111
164 1 0.732827 0.798337 0.391733
376 1 0.617843 0.822223 0.376554
517 1 0.567669 0.84264 0.449198
274 1 0.903984 0.777647 0.275452
306 2 0.877653 0.754485 0.318383
469 1 0.824449 0.76819 0.307992
285 2 0.785274 0.912071 0.253735
394 1 0.998758 0.795689 0.447501
392 1 0.883456 0.788219 0.471737
408 2 0.873634 0.995773 0.472575
390 2 0.905929 0.837092 0.45136
391 1 0.896342 0.835526 0.396318
295 1 0.881574 0.939103 0.465351
287 1 0.840242 0.904008 0.252833
482 2 0.0216986 0.0399025 0.524693
54 2 0.219646 0.0734123 0.523183
56 1 0.202608 0.126392 0.530013
317 1 0.026599 0.0677663 0.576362
44 1 0.0224331 0.0876995 0.703209
169 1 0.0559194 0.154329 0.663791
381 2 0.013211 0.119473 0.658518
65 1 0.170192 0.196215 0.718492
95 1 0.149508 0.223921 0.610636
63 2 0.119368 0.214147 0.701947
15 2 0.156505 0.218879 0.555989
55 1 0.274634 0.0775262 0.512092
192 2 0.412999 0.081441 0.509731
194 1 0.390723 0.130324 0.532521
127 1 0.322039 0.182385 0.650326
76 1 0.387154 0.237967 0.65377
126 2 0.361672 0.203392 0.616635
312 2 0.274257 0.175931 0.733133
431 1 0.488377 0.239285 0.735632
220 1 0.523419 0.0739218 0.54402
257 1 0.600525 0.164734 0.554258
255 2 0.60299 0.217855 0.540841
219 2 0.576123 0.0692697 0.56972
256 1 0.648251 0.229962 0.572563
340 1 0.57096 0.0286275 0.607739
37 1 0.510087 0.112523 0.683779
36 2 0.521312 0.126943 0.737039
51 2 0.74999 0.0118894 0.563704
410 1 0.721811 0.160143 0.662687
195 2 0.747791 0.183005 0.616196
97 1 0.732498 0.0657807 0.579159
253 1 0.577437 0.12731 0.744838
466 1 0.777767 0.186036 0.507286
13 1 0.935564 0.181025 0.672649
108 2 0.894837 0.221005 0.66394
197 1 0.801707 0.193212 0.629604
92 1 0.801985 0.0145416 0.537099
395 1 0.102108 0.254432 0.735931
232 1 0.0542549 0.279564 0.561087
378 2 0.226447 0.354385 0.504997
17 1 0.18701 0.265224 0.542266
130 1 0.2253 0.384974 0.616485
129 2 0.225281 0.423682 0.655104
436 1 0.0402928 0.474317 0.590956
50 1 0.192598 0.482649 0.544055
20 1 0.142418 0.480938 0.691048
500 2 0.00487014 0.291532 0.538691
510 1 0.00529463 0.404564 0.546015
18 2 0.0866558 0.497983 0.682704
209 1 0.277266 0.423777 0.677205
514 1 0.427463 0.314264 0.502746
364 1 0.372116 0.251093 0.527787
268 1 0.409396 0.427699 0.729975
372 2 0.36023 0.458326 0.723226
231 2 0.453347 0.282383 0.735792
512 2 0.511754 0.382469 0.505555
513 1 0.534058 0.371076 0.557293
385 1 0.618748 0.355343 0.69327
506 2 0.608533 0.394803 0.652877
453 1 0.640602 0.436606 0.665619
125 1 0.994154 0.252051 0.502021
73 1 0.922597 0.260041 0.632497
403 1 0.810213 0.476566 0.512237
435 2 0.99519 0.457148 0.562575
77 1 0.768649 0.320209 0.672168
162 2 0.82827 0.473243 0.565625
182 1 0.886576 0.465934 0.562164
311 1 0.969108 0.406399 0.684262
399 2 0.950237 0.367955 0.72013
441 2 0.790287 0.370756 0.682874
442 1 0.789381 0.399341 0.634669
43 1 0.217346 0.623368 0.501614
48 2 0.175016 0.523979 0.507993
338 1 0.0870215 0.742703 0.614256
24 2 0.0567784 0.704789 0.585144
19 1 0.0915253 0.553185 0.69043
25 1 0.0146682 0.683135 0.618911
98 1 0.21546 0.730602 0.615856
42 2 0.255621 0.66339 0.518483
350 1 0.326631 0.561086 0.657539
467 2 0.330769 0.61342 0.64008
468 1 0.296087 0.620013 0.595295
409 1 0.420501 0.659726 0.617909
189 2 0.472872 0.680211 0.623854
88 1 0.465039 0.637309 0.721644
266 1 0.254872 0.74072 0.694781
154 1 0.562168 0.577758 0.504287
445 1 0.622574 0.645342 0.523041
302 1 0.506233 0.657182 0.584145
153 2 0.587456 0.609134 0.545429
203 1 0.63745 0.56458 0.639753
309 2 0.674083 0.5392 0.675132
310 1 0.666324 0.564124 0.721883
21 2 0.620064 0.720558 0.690926
22 1 0.573768 0.722132 0.656757
23 1 0.604632 0.747345 0.737575
67 1 0.869503 0.655385 0.529887
321 2 0.850262 0.705401 0.540473
322 1 0.851118 0.706295 0.599177
199 1 0.793481 0.51521 0.694894
396 2 0.930464 0.63407 0.658948
179 1 0.927196 0.670555 0.699913
41 1 0.894719 0.587407 0.674253
218 1 0.762151 0.7359 0.519961
491 2 0.826442 0.508576 0.738699
483 1 0.0510182 0.990962 0.519755
204 2 0.111937 0.90585 0.511569
425 1 0.155468 0.936943 0.615983
276 2 0.217981 0.764112 0.659324
91 1 0.198769 0.861338 0.660438
131 1 0.194091 0.97234 0.716812
90 2 0.173868 0.913311 0.663795
230 1 0.106537 0.899372 0.735388
384 2 0.38169 0.993178 0.738861
269 1 0.494803 0.969128 0.712115
68 1 0.365937 0.977154 0.551534
60 2 0.345764 0.921828 0.553774
143 1 0.30488 0.931364 0.589303
167 1 0.428174 0.866438 0.55683
400 1 0.463095 0.782778 0.574279
165 2 0.475249 0.836468 0.562838