# File generated with Atomsk by upg826249 on 2026-05-09 14:11:49

518  atoms
4  atom types

0.000000000000      17.200000000000  xlo xhi
0.000000000000      17.200000000000  ylo yhi
0.000000000000      17.200000000000  zlo zhi

Masses

1   1.00800000              # H
2   15.99900000             # O
3   24.30500000             # Mg
4   30.97376200             # P

Atoms # atomic

1    3        5.609797000000       5.165280000000      11.401484000000
2    2        1.509284000000       0.594482000000      11.213574000000
3    4        1.127288000000      16.749084000000      12.404485000000
4    2        0.977362000000      15.307364000000      11.783170000000
5    2        7.462685000000      15.053853000000      10.026826000000
6    2       16.953283000000      17.180168000000      12.888682000000
7    4        5.944182000000      14.935758000000       9.553189000000
8    2        4.921161000000      15.548266000000      10.630340000000
9    2        5.677927000000      15.989877000000       8.360438000000
10    2        5.533515000000      13.542455000000       9.149213000000
11    3        8.964847000000       8.958757000000       6.168814000000
12    2        1.286226000000       8.747697000000      10.595802000000
13    1        5.675501000000       3.121404000000       9.097733000000
14    1        1.999706000000       8.531441000000      11.223619000000
15    2        8.621466000000       2.605456000000      14.265147000000
16    1        9.634735000000       4.449451000000       1.914584000000
17    1       11.888829000000       3.140686000000       2.025902000000
18    2       10.402492000000      11.981588000000      13.497184000000
19    1        9.765145000000      11.686334000000      14.150560000000
20    1        9.984101000000      12.616028000000      12.912556000000
21    2        9.846725000000       3.114456000000      10.719659000000
22    1       10.721930000000       3.446003000000      11.087223000000
23    1       16.742636000000      17.102493000000       8.771553000000
24    2        6.530616000000      13.469320000000       3.025514000000
25    1        9.795675000000      13.181770000000       7.436575000000
26    1       12.394182000000      11.287724000000       8.326468000000
27    2        4.124835000000      15.940014000000       0.022280000000
28    1       13.103734000000      13.674688000000       3.465525000000
29    1        4.901553000000      16.604708000000      17.100670000000
30    2        6.708241000000      11.081616000000       2.065668000000
31    1        9.825844000000       7.766419000000      10.974236000000
32    1        1.418819000000       3.625141000000       8.263861000000
33    2       11.469751000000       7.899805000000      13.498457000000
34    1       10.693240000000       8.192067000000      12.968335000000
35    1       11.306781000000       6.581855000000      16.625950000000
36    2        2.043446000000      16.158798000000       1.736357000000
37    1        7.698221000000       2.592384000000      14.559937000000
38    1        2.683286000000      16.086128000000       1.056297000000
39    2       12.276551000000       4.046506000000      11.568686000000
40    1       13.010080000000       3.562034000000      11.165191000000
41    1        1.350664000000       0.659286000000      15.682702000000
42    2        1.302169000000       6.139643000000      12.153434000000
43    1        0.945603000000       6.323907000000      13.051119000000
44    1        6.442002000000       8.285653000000      13.547374000000
45    2       14.930184000000      15.135587000000      11.044223000000
46    1        7.337469000000      12.272940000000      11.186037000000
47    1       12.473698000000       2.858296000000       6.285121000000
48    2        1.173487000000      11.278917000000      10.014012000000
49    1       16.189964000000       4.187443000000       6.787137000000
50    1        0.456356000000       6.143083000000      11.611238000000
51    2        5.223726000000       3.919381000000       9.448837000000
52    1        0.955826000000      11.558349000000      10.952048000000
53    1        3.225757000000       8.038437000000      13.352463000000
54    2       12.967183000000      14.304948000000      14.894031000000
55    1       13.785439000000      14.723664000000      14.656446000000
56    1       12.817389000000      14.318810000000      15.820061000000
57    2        9.444589000000       7.672851000000       2.578762000000
58    1        9.881107000000       7.746777000000       3.433584000000
59    1       15.701725000000      15.471692000000      11.530914000000
60    2        0.443935000000      16.591274000000       5.808818000000
61    1       14.119326000000      12.182140000000      12.281196000000
62    1        2.969322000000       0.032811000000       9.828012000000
63    2       16.426018000000      11.365520000000       3.461362000000
64    1       10.151698000000      16.258284000000       7.963841000000
65    1        0.191290000000      11.240785000000       3.276944000000
66    2        3.222747000000      11.554410000000      14.718109000000
67    1        9.310910000000       4.638565000000      12.498518000000
68    1        1.373288000000      16.947762000000       5.883828000000
69    2        1.002880000000       2.969666000000      11.720149000000
70    1        1.755862000000       3.615526000000      11.847618000000
71    1        0.392707000000       3.353364000000      12.395266000000
72    2        9.985512000000      12.236012000000       3.437162000000
73    1       10.080886000000      12.162791000000       2.473721000000
74    1       10.864294000000      12.069584000000       3.781231000000
75    2       12.543341000000      10.405381000000       7.905550000000
76    1       11.671937000000      10.203074000000       7.456888000000
77    1       12.084152000000      12.630459000000       5.665491000000
78    2        7.185747000000       3.879254000000       2.275646000000
79    1        6.617115000000       3.967593000000       3.080554000000
80    1        7.985564000000       3.387093000000       2.453632000000
81    2        3.116692000000      17.023064000000       6.302527000000
82    1        3.577841000000      16.346931000000       5.865492000000
83    1       12.799603000000       5.073759000000       5.498032000000
84    2       15.092759000000       3.764719000000       0.326972000000
85    1       14.831887000000      11.769839000000       0.448459000000
86    1       15.954445000000       3.817248000000       0.785727000000
87    2        7.342474000000       8.562882000000      13.352308000000
88    1       10.078185000000      14.837494000000      13.839929000000
89    1        2.570867000000       5.818915000000      15.147748000000
90    2       12.094542000000       8.941282000000       2.791388000000
91    1       11.390666000000       8.305346000000       2.498936000000
92    1       12.816804000000       8.254056000000       2.774291000000
93    2        5.418636000000       7.980043000000      15.620077000000
94    1        8.752289000000       0.915651000000       1.238185000000
95    1        5.299406000000      13.164227000000       1.648632000000
96    2        5.666437000000       0.864030000000      16.646400000000
97    1        2.630912000000      13.114794000000      12.409009000000
98    1       16.570446000000      14.620172000000       8.405485000000
99    2        1.974629000000      13.297338000000       1.935069000000
100    1       12.379889000000       3.681557000000      14.216505000000
101    1       14.813861000000       2.623430000000      10.941092000000
102    2        3.641051000000       2.733149000000      14.994152000000
103    1        2.903601000000       3.325224000000      15.231924000000
104    1        4.846152000000       0.463043000000       3.210260000000
105    2        9.816814000000       3.861916000000       8.154469000000
106    1       10.545578000000       3.332018000000       7.656425000000
107    1        6.952859000000       2.484454000000      11.192574000000
108    2       17.161884000000      12.858857000000      12.291550000000
109    1        4.924463000000       4.699814000000       4.321311000000
110    1        0.290747000000      13.769615000000      11.954224000000
111    2        6.766273000000       5.839142000000       7.646174000000
112    1        6.674924000000       5.919552000000       8.613003000000
113    1        6.933182000000       4.950934000000       7.341785000000
114    2        2.026831000000      11.032063000000       3.554552000000
115    1        2.746307000000      10.499551000000       3.242561000000
116    1        2.369730000000      11.249454000000       4.441848000000
117    2       14.890178000000       3.146671000000      10.164254000000
118    1       14.596557000000      17.127209000000       5.935583000000
119    1       14.506549000000       2.582374000000       9.486110000000
120    2       16.591894000000       3.587198000000      13.866537000000
121    1        6.744756000000       0.558522000000       4.448419000000
122    1       16.462894000000       2.751192000000      14.357614000000
123    2        0.886491000000      15.199073000000       9.104820000000
124    1        4.582837000000      15.173135000000       0.290198000000
125    1       14.850084000000       8.562624000000       5.917299000000
126    2        8.380064000000      15.221209000000       2.113966000000
127    1        9.106540000000      15.452945000000       2.692591000000
128    1       15.245220000000      15.124132000000       7.574399000000
129    2       16.201437000000      17.121378000000       1.459542000000
130    1       17.120760000000       0.135940000000       1.283031000000
131    1       15.971146000000      16.429045000000       0.725952000000
132    2       16.837820000000      11.287775000000      14.717971000000
133    1       15.869821000000      11.237569000000      15.001668000000
134    1       12.172113000000       8.283055000000      12.959289000000
135    2       12.275502000000      12.274367000000       9.868483000000
136    1        1.082057000000       7.814235000000       0.614276000000
137    1       13.121192000000      11.988503000000      10.222476000000
138    2       11.738432000000       7.393919000000      16.651939000000
139    1       11.802794000000       7.656993000000      15.725307000000
140    1        1.138011000000       4.206621000000      16.552214000000
141    2       16.523094000000       8.664948000000       3.996420000000
142    1        6.130923000000      12.964518000000       7.452209000000
143    1       16.365009000000       9.622970000000       3.992034000000
144    2       11.714610000000       2.223685000000       2.203320000000
145    1       13.309239000000       4.214413000000       3.362548000000
146    1        9.400660000000      11.399214000000       8.439369000000
147    2        3.336164000000       8.834419000000      12.850447000000
148    1        6.519127000000      10.416406000000       2.739530000000
149    1        7.374500000000       1.215362000000       5.663651000000
150    2        3.582124000000      13.343003000000      12.311381000000
151    1       15.532495000000      15.885955000000      13.906751000000
152    1       13.983600000000      10.668042000000      15.377884000000
153    2        8.273406000000       0.367081000000       0.595409000000
154    1        8.877522000000       0.071576000000      17.097746000000
155    1       14.585325000000       3.955742000000       1.095829000000
156    2       12.577809000000      12.345678000000       4.858673000000
157    1        5.867952000000       7.420665000000      16.311930000000
158    1        4.258307000000       2.095321000000       1.811143000000
159    2        9.361462000000       9.857904000000       7.894249000000
160    1       13.926187000000       5.182377000000      15.109753000000
161    1        9.591476000000       9.125598000000       8.447453000000
162    2       13.822918000000       1.321521000000       8.418437000000
163    1        5.156388000000      10.556242000000       0.663368000000
164    1        9.849236000000       3.350336000000       9.767898000000
165    2       16.522974000000       1.343251000000      15.199365000000
166    1       15.648182000000       1.220617000000      15.688980000000
167    1       10.226586000000      10.810097000000      16.866560000000
168    2        5.233805000000      16.888731000000       3.562068000000
169    1        6.768458000000       8.159525000000       4.139128000000
170    1        7.753261000000      14.235391000000      10.536187000000
171    2       16.914721000000       7.579215000000      14.577550000000
172    1        7.541030000000       8.333056000000      12.412930000000
173    1        0.064376000000       7.979751000000      15.369576000000
174    2       14.462981000000      10.375573000000       5.934877000000
175    1        0.220167000000       7.662652000000       3.027441000000
176    1       13.928818000000      10.245868000000       6.732218000000
177    2        7.745521000000      15.483991000000       6.463777000000
178    1       14.755364000000       0.948952000000       2.237221000000
179    1       16.433878000000      12.629478000000      11.760053000000
180    2        8.841695000000      13.993266000000      15.246510000000
181    1        9.097493000000      13.731688000000      16.169445000000
182    1        8.660836000000      13.134711000000      14.915307000000
183    2       12.316937000000      14.715563000000       0.416477000000
184    1       12.527826000000      15.623637000000       0.622014000000
185    1       12.699413000000      14.242082000000       1.202063000000
186    2       10.051732000000       9.954620000000      11.516397000000
187    1        9.278678000000       9.807904000000      10.915430000000
188    1        9.956478000000      10.736395000000      12.056736000000
189    2       16.484720000000       0.372616000000       8.039057000000
190    1       15.634026000000      11.319784000000       9.528697000000
191    1       10.146934000000       1.868660000000       2.738859000000
192    2       12.112842000000       0.092952000000      17.057034000000
193    1       11.391681000000       0.256581000000      16.485048000000
194    1       11.758488000000       0.348281000000       0.711992000000
195    2       10.068416000000       6.828675000000      10.971054000000
196    1       12.953062000000       7.047218000000       6.417182000000
197    1       10.719177000000       6.669472000000      10.257805000000
198    2       12.432796000000       1.958684000000      14.214664000000
199    1       13.127298000000       1.593583000000      14.820260000000
200    1        4.246869000000       8.897629000000      12.628395000000
201    2       14.059280000000       1.243703000000       2.817308000000
202    1        3.354825000000       1.885447000000      15.489391000000
203    1        7.639363000000       6.824685000000      16.354000000000
204    2        2.240369000000       0.399902000000      15.460788000000
205    1        5.362823000000       1.589512000000       0.021260000000
206    1        2.466411000000      16.965548000000      16.123985000000
207    2        0.350426000000      10.139073000000       6.929226000000
208    1        0.678241000000      11.229846000000      16.257423000000
209    1        3.154342000000      10.803080000000      14.135442000000
210    2       12.148635000000       6.012673000000       9.300212000000
211    1       12.349634000000       6.872122000000       8.938754000000
212    1       11.816778000000       5.566419000000       8.476899000000
213    2        6.267474000000       1.563927000000       8.684073000000
214    1        6.944517000000       1.277778000000       9.286572000000
215    1       16.196190000000       3.298496000000       8.869094000000
216    2        6.369366000000      16.528719000000      12.482591000000
217    1        9.882122000000       6.418094000000       6.999403000000
218    1        1.609750000000      14.700152000000       8.727280000000
219    2        0.450759000000       4.390094000000       1.316307000000
220    1        0.601744000000       4.044391000000       2.221758000000
221    1        0.581840000000       5.281897000000       1.448283000000
222    2        4.768924000000       2.627730000000       1.181463000000
223    1       16.741430000000       8.378636000000       4.952052000000
224    1        5.104530000000       0.909823000000      12.914069000000
225    2        8.687066000000      10.080662000000       0.286339000000
226    1        9.030980000000       3.242802000000      14.827037000000
227    1       11.540752000000       7.235644000000       5.885462000000
228    2        2.653203000000      16.623077000000      12.819298000000
229    1       14.593873000000       0.795858000000       8.104313000000
230    1        8.814106000000      15.546787000000       8.466838000000
231    2       16.708717000000       3.007420000000       8.085789000000
232    1       12.159884000000      13.131323000000      10.372752000000
233    1        1.217222000000       1.516856000000      11.259722000000
234    2        7.137071000000       8.119862000000       5.764081000000
235    1        4.835797000000      12.324299000000      11.566793000000
236    1       11.626667000000       1.428011000000      14.405447000000
237    2        4.014016000000      14.207939000000       5.393713000000
238    1        3.181742000000      13.822041000000       5.050522000000
239    1        2.878592000000      15.943419000000      13.491972000000
240    2       14.911609000000      12.462398000000       1.138210000000
241    1       13.574877000000       8.109559000000      10.920779000000
242    1       14.040188000000      12.545783000000       1.540508000000
243    2        6.307619000000      12.547469000000       6.582406000000
244    1        6.145887000000      11.587760000000       6.733456000000
245    1        9.529574000000       5.360569000000      15.493760000000
246    2        4.148520000000       1.258868000000      12.872446000000
247    1       13.364486000000      11.843507000000       5.167774000000
248    1        3.517107000000      14.200939000000      11.934839000000
249    2       11.204974000000      14.802492000000      10.891728000000
250    1       10.408391000000      15.012005000000      10.386960000000
251    1       10.967734000000      15.090558000000      11.824862000000
252    2       15.541266000000      11.508056000000       8.626763000000
253    1        3.792084000000       1.481821000000       6.023732000000
254    1       12.208044000000      10.730581000000       2.063157000000
255    2        5.065022000000       9.104097000000      10.702631000000
256    1        6.388630000000      15.733872000000       7.648995000000
257    1        3.462326000000       6.744860000000       7.904380000000
258    2       14.861660000000       5.298443000000      15.438238000000
259    1        1.747228000000       4.685314000000       6.480324000000
260    1       15.004712000000       4.738067000000      16.273693000000
261    2        9.746621000000       5.205649000000       1.361867000000
262    1        2.568321000000       0.454943000000       2.663420000000
263    1        6.852944000000      11.900784000000       2.550106000000
264    2       15.419491000000      15.016133000000      14.263564000000
265    1        0.533025000000       8.169759000000       6.857933000000
266    1       13.601588000000       5.398685000000       2.581135000000
267    2       15.571074000000       1.452755000000       5.521303000000
268    1       16.539761000000       5.041062000000       5.595882000000
269    1       12.551924000000      11.706991000000      13.478024000000
270    2        2.858640000000      11.297562000000       6.301684000000
271    1        4.852894000000      10.052402000000      10.845047000000
272    1        2.977165000000      12.104138000000       6.860203000000
273    2        4.781050000000      13.420318000000       0.864150000000
274    1       14.467092000000       2.228501000000      16.894356000000
275    1        3.267054000000       0.265534000000      12.961318000000
276    2       14.470291000000       7.123380000000       2.625511000000
277    1       14.703558000000       7.409261000000       1.777207000000
278    1       15.068111000000       7.422626000000       3.279214000000
279    2       15.890650000000       4.386981000000       5.883845000000
280    1       16.359402000000       0.866978000000       5.482724000000
281    1       16.249372000000       6.944311000000      14.801133000000
282    2        1.542568000000       4.304971000000      15.716569000000
283    1        0.882965000000       4.159356000000      14.998211000000
284    1        8.559838000000      12.310986000000      10.389127000000
285    2       10.434896000000       8.149997000000       5.174809000000
286    1       11.351450000000       0.804556000000       6.420863000000
287    1       11.008258000000       8.880394000000       4.857091000000
288    2        1.388055000000       8.153643000000      16.978258000000
289    1        1.334261000000       9.137981000000      16.943048000000
290    1       15.566980000000       5.508455000000      10.399653000000
291    2        5.722543000000      12.434482000000      15.467547000000
292    1        6.034878000000       9.106007000000      10.548605000000
293    1       15.816708000000       2.304576000000       6.000289000000
294    2        1.319857000000      11.103099000000      16.995251000000
295    1        3.658750000000      10.759322000000       6.357447000000
296    1        2.221724000000      11.349196000000      16.687939000000
297    2        8.134654000000      12.768300000000      11.163075000000
298    1        5.645659000000       2.819940000000       1.593986000000
299    1        9.720304000000       4.799144000000       0.463518000000
300    2        6.770952000000       8.203764000000       3.157782000000
301    1        3.702369000000      14.823390000000      15.393226000000
302    1        7.694523000000       8.037990000000       2.882273000000
303    2        3.861881000000       5.178284000000       1.511842000000
304    1        4.209631000000       5.872132000000       0.940783000000
305    1        4.158530000000       4.265738000000       1.273521000000
306    2       14.299392000000       1.400763000000      16.378357000000
307    1       13.561546000000       0.899199000000      16.825487000000
308    1       16.770809000000      17.050703000000       7.248665000000
309    2        8.232402000000       6.588563000000      15.649661000000
310    1        8.110694000000       7.388449000000      15.035329000000
311    1        6.508171000000       2.811701000000       7.157058000000
312    2       13.601537000000       8.292550000000       9.179984000000
313    1       13.143965000000       8.981737000000       8.613313000000
314    1       14.265594000000       7.897019000000       8.625646000000
315    2       14.357115000000      16.202950000000       6.028772000000
316    1        4.784060000000       6.263277000000       7.417036000000
317    1        7.849856000000      10.223577000000      14.252522000000
318    2       11.078279000000      11.096408000000      16.453674000000
319    1        8.167351000000      16.000317000000       1.549711000000
320    1       11.527147000000      10.339315000000      16.096018000000
321    2        9.110823000000       5.389070000000      13.038030000000
322    1        9.572333000000       6.129770000000      12.591311000000
323    1       10.004569000000      16.822186000000      14.622562000000
324    2       11.235814000000      17.052769000000       6.435569000000
325    1        5.947072000000      13.521023000000       3.763704000000
326    1        7.963049000000      16.200577000000       5.865905000000
327    2       15.400106000000      15.013364000000      17.157516000000
328    1       15.224218000000      14.130299000000       0.435578000000
329    1        3.995216000000       1.856998000000      13.666071000000
330    2        6.985677000000       6.063705000000      10.366560000000
331    1        7.895195000000       5.831660000000      10.584725000000
332    1       15.620386000000      14.714462000000      16.306013000000
333    2        2.680723000000       8.340091000000       8.172528000000
334    1        8.128239000000      14.637905000000       6.200634000000
335    1        2.607451000000       9.091989000000       7.637006000000
336    2        8.486704000000      10.804610000000       5.141441000000
337    1        8.860562000000      11.342420000000       4.356605000000
338    1        2.297060000000      12.530802000000       8.933749000000
339    2        9.696741000000      15.913990000000       8.730582000000
340    1        1.940194000000      15.317804000000       2.183196000000
341    1       14.552816000000       9.655770000000      16.392891000000
342    2        0.674374000000       3.062666000000       3.742221000000
343    1       17.067251000000       2.903566000000       4.268266000000
344    1        1.284431000000       3.541188000000       4.333919000000
345    2        5.430745000000      11.783273000000      10.977212000000
346    1       15.824757000000       4.149741000000      14.040635000000
347    1        6.945429000000       7.328783000000       6.289713000000
348    2        2.939704000000       1.335423000000       2.860429000000
349    1        2.240231000000       1.819433000000       3.315076000000
350    1        1.971516000000      12.669210000000       2.700142000000
351    2        0.661103000000       7.076819000000       2.389424000000
352    1        0.526793000000       9.016120000000      11.198197000000
353    1        1.376421000000       6.709789000000       3.015229000000
354    2        3.298530000000       0.508736000000       9.012766000000
355    1        4.886245000000       4.450569000000       8.748126000000
356    1        2.938121000000       1.369192000000       9.105801000000
357    2        5.469101000000       3.875298000000       4.435209000000
358    1        4.807813000000       3.322214000000       4.798421000000
359    1        5.411842000000       3.303810000000      15.728575000000
360    2        3.931851000000       6.424957000000      10.925078000000
361    1        4.178602000000       7.403413000000      10.964003000000
362    1        3.054084000000       6.321826000000      11.286863000000
363    2        8.402596000000       0.802019000000      10.646336000000
364    1        5.493198000000       0.938260000000       8.765980000000
365    1        7.725260000000       7.633171000000      10.157959000000
366    2        0.236601000000       7.395450000000       6.459443000000
367    1        9.016309000000       1.273018000000       3.674522000000
368    1        0.816190000000       6.642519000000       6.438734000000
369    2       12.293236000000      11.640341000000       1.549732000000
370    1        6.296679000000       5.023725000000      14.038674000000
371    1       12.047258000000      11.259481000000       0.679051000000
372    2        6.172220000000       3.912415000000      15.733562000000
373    1        5.825571000000       4.646047000000      16.289810000000
374    1        4.554027000000      13.504649000000       5.738040000000
375    2        4.233402000000       8.633454000000       2.989532000000
376    1        5.200678000000       8.492895000000       2.963921000000
377    1        3.878411000000       8.974839000000       2.168645000000
378    2       16.381985000000       9.203634000000      12.472786000000
379    1       16.647621000000       8.516305000000      13.093346000000
380    1       16.474607000000      10.045523000000      12.942828000000
381    2        4.092895000000       3.897468000000      12.199737000000
382    1        4.188217000000       3.850409000000      13.138220000000
383    1        4.027156000000       3.012184000000      11.810260000000
384    2        3.947090000000       2.415138000000       6.012002000000
385    1        8.739114000000      17.176006000000      10.190880000000
386    1        3.421493000000       2.884406000000       6.646957000000
387    2        3.011359000000       6.679775000000      15.136378000000
388    1        2.522191000000       7.322247000000      15.764884000000
389    1        2.054162000000       8.372427000000       8.904406000000
390    2       10.268469000000      13.583219000000       6.708258000000
391    1       14.539040000000       8.533608000000      12.117830000000
392    1       10.820812000000      14.274727000000       7.104873000000
393    2        3.044658000000      14.819984000000      14.709096000000
394    1        3.128990000000      13.907903000000      14.299530000000
395    1       16.094900000000      11.847893000000       2.742368000000
396    2       12.282469000000       4.637017000000      14.392323000000
397    1       15.346528000000      10.716443000000       6.155123000000
398    1       16.487644000000       0.774475000000      14.410830000000
399    2        7.187880000000       3.311224000000       6.633524000000
400    1        6.695530000000       3.561105000000       5.832589000000
401    1        8.234930000000      11.553928000000       5.726275000000
402    2        9.524637000000      12.311261000000       8.846338000000
403    1       13.169352000000       0.697744000000       8.816960000000
404    1        7.112493000000      14.204861000000       2.743778000000
405    2        1.058983000000      13.682170000000       4.750726000000
406    1        0.912123000000      12.929360000000       5.345003000000
407    1        0.386790000000      13.580277000000       4.056414000000