     518
 i =      476, E =     -3170.7058833769
  P        -0.1640840449        0.6398879632       -1.3417335298
  O        -1.0702075765       -0.6285308608       -0.7770511337
  O         0.8590851486        0.9970395402       -0.2240363139
  O        -1.2194284719        1.7341094052       -1.5851927578
  O         0.4952509449        0.1555682388       -2.6546821420
 Mg         1.1467204046        0.0712746894        1.8621672435
  P        -0.4209005441       -2.0210592568       -0.1763736532
  O         0.3469800049       -1.6581272258        1.1386592983
  O         0.5027969114       -2.5848220301       -1.2844595462
  O        -1.6526734012       -2.8735193760        0.1445581897
 Mg         0.7184317136       -1.7211372042       -3.4391264054
  O        -5.4418517850        4.8696347150       -7.3066045858
  H        -5.4347445425        5.7954717708       -7.6358560747
  H        -5.3726713843        4.2895656691       -8.0940668844
  O        -5.4509877978       -1.6475720898      -11.5410420080
  H        -5.5709821117       -0.6800332019      -11.3544765016
  H        -4.6632278873       -1.6351418058      -12.1422381776
  O         6.3063055906        8.3860366297        4.5140600039
  H         7.2589049787        8.1797108189        4.5491301293
  H         5.8750868101        7.4916487248        4.4070785924
  O        -1.1516688713       -3.5241482284        8.8876559105
  H        -0.9032139192       -4.1710456267        8.2006956832
  H        -0.4621749173       -2.8077301033        8.9147819967
  O         3.6524632749        0.5760697312       -1.0136620606
  H         2.7439946925        0.6942398683       -0.6543045168
  H         3.8342760620        1.4415893127       -1.4538028256
  O         3.2247814628       -8.5199961282        1.6484807912
  H         3.7092600850       -7.7269760480        1.9608687702
  H         2.8377405894       -8.2780516743        0.7522700746
  O        -7.4522992931       -4.6568657260        6.5934391820
  H        -8.2873439867       -4.6753870717        7.1243999903
  H        -7.6120234464       -4.0962042093        5.7987907833
  O         7.7412231696       12.1225923052        8.4571590706
  H         7.8519003211       12.7465839206        9.2163006648
  H         8.1678515247       11.3012540182        8.8075426635
  O        -4.9481791392      -11.4605727610        6.2979940141
  H        -4.6373626198      -11.6230889503        5.3875690977
  H        -5.9146642885      -11.4749164437        6.2110048372
  O       -10.3109554015       -5.9398078999       -4.2371086619
  H        -9.6366910408       -5.3528333891       -4.6253919740
  H        -9.9004749064       -6.2848053609       -3.4257212029
  O        -3.7264112523       -7.5997572947       -5.2327939072
  H        -4.4089809279       -7.2587446390       -5.8617066203
  H        -2.9210372420       -7.6519534343       -5.7816672135
  O        -2.1448445276       -4.5233543508       -2.2358893596
  H        -1.4359062988       -5.1260019063       -2.5661478332
  H        -1.8322251743       -4.1684653412       -1.3763138210
  O        -2.8686261964       -8.6685868117        4.5046433570
  H        -3.1227061538       -8.9767158724        3.6001095641
  H        -3.7049524837       -8.4377081952        4.9807727962
  O         2.5048922255        1.4385579280       10.0220975361
  H         1.9996809916        1.5798323634       10.8488967829
  H         1.8272908172        1.2353887114        9.3515491544
  O        -5.3755686268       -6.3793932891       10.0991310536
  H        -4.7883413829       -6.2777909670        9.3081167058
  H        -6.2658039597       -6.5922528741        9.7481417941
  O         5.0263093389        0.5757196036       -5.5898497382
  H         5.4890630102        0.8106270021       -6.4429190979
  H         4.3106605534       -0.0390563082       -5.8340632790
  O        -2.4273521900        3.7172816956        1.2814328389
  H        -2.9819194345        3.0451913650        0.8335733639
  H        -3.0259632623        4.1399585970        1.9349575422
  O         6.3033054603        1.3634639469        9.3964825920
  H         5.6905032412        1.8154004467        8.7703387439
  H         7.1548705629        1.2703429627        8.9317476236
  O         4.8570397417       -2.1476963269        8.3094221386
  H         5.5263258579       -1.6005894263        7.8258194342
  H         5.0130213167       -3.0751541294        7.9989313728
  O        -3.0792832837       -5.7454142291        0.7156377503
  H        -3.4467190774       -4.9988249319        0.1964749641
  H        -2.9549755007       -6.5142332366        0.0981346477
  O         4.7299788029       -7.3807463645       -2.2914783056
  H         4.1013345839       -8.1296716698       -2.3134319884
  H         5.6160672651       -7.7574030964       -2.4446792868
  O        -7.1619647058       -6.6679581284        0.8665103203
  H        -7.1447650919       -7.6384522214        0.7275985750
  H        -6.3476206045       -6.5032741755        1.4001300243
  O         6.3716828079      -11.0295672357       -2.8604476711
  H         6.4446206094      -11.5333751361       -2.0150203249
  H         5.4155245145      -10.7921823381       -2.9626003275
  O        -4.8052948413        2.5886833721        7.9628664635
  H        -4.7081904822        2.0921634299        8.8183602882
  H        -3.8888638508        2.8847689074        7.7683081020
  O        -1.6431145433        0.2248132667        9.3953015734
  H        -2.3285846724        0.0262116896        8.7025620190
  H        -1.6586605410        1.1852888909        9.6169342716
  O        -5.5892830328       -1.0022437044       -5.7295268215
  H        -5.6479818869       -0.6561987111       -4.8132027490
  H        -5.7624850418       -1.9701872455       -5.6775596750
  O        -2.6508940485       -0.7916045730       -5.5164118175
  H        -3.6275753507       -0.7777435271       -5.5396948115
  H        -2.3237470066       -0.4406689401       -6.3921458396
  O        -1.5718328660      -11.3216293212       -4.0759380790
  H        -1.8649812405      -11.6516084577       -3.1981691192
  H        -2.1494181041      -11.7861283146       -4.7243498383
  O        -6.5153266664        3.5901718471        1.4422389529
  H        -6.8721622721        4.1581882015        0.7101792292
  H        -6.4112914119        2.7136280694        1.0352572596
  O        -8.6025855496        1.3642622632        7.6603559744
  H        -8.4634713544        1.4245216264        6.6757454728
  H        -7.8513005107        0.8194639568        8.0148772253
  O        -3.7209057052        2.0797765327        4.0144700369
  H        -4.1683752793        2.7991473168        3.5404553769
  H        -2.9467213373        2.5491017150        4.4052845256
  O         5.5827440921       -9.8935159959        0.9234397190
  H         4.8096841807       -9.3793428000        1.2616205210
  H         6.0165822028       -9.2806664718        0.3102381025
  O         1.6533759905        4.5880971203        7.3861848816
  H         1.4919900633        3.6333333566        7.2507588427
  H         0.9349607099        4.9120084357        7.9801416059
  O       -11.8166721464        5.1528666477        7.2430500336
  H       -11.9952269315        5.9634871485        7.7444988542
  H       -11.8891783556        5.4018048069        6.2859292554
  O         2.0784893937       -4.4372916967       -6.8084787794
  H         1.7120410455       -4.5532932506       -5.9129759262
  H         2.5713147943       -3.5860624755       -6.7146207215
  O        -0.4271584585       -8.8836135221       12.1801860637
  H        -0.9191577247       -8.7892073478       11.3312749314
  H        -0.8596932997       -9.6578169848       12.6061960238
  O        -1.1516984682       -2.3685228225       -3.9388233570
  H        -1.7931907105       -1.8409052474       -4.4794283577
  H        -1.6614672190       -2.9923825816       -3.3778080966
  O        -2.0777082495        3.5849254133        7.7447631043
  H        -1.5854514860        3.3084088302        8.5501528490
  H        -2.3306253362        4.5154297699        7.9255466673
  O         4.5872999970       -5.3793584515       -0.3604255115
  H         4.5600744022       -6.1475345961       -0.9835485574
  H         4.9033592103       -5.7471474833        0.4811679913
  O         5.2363010045       -4.7230313734        7.3154429279
  H         6.1518140554       -4.9518859190        7.6080610332
  H         4.6653086768       -5.2845624661        7.8999968715
  O        -4.3119126304        5.0118599082        3.0794410108
  H        -5.1088219169        4.7569145715        2.5743409527
  H        -4.0853158181        5.9135148517        2.7422901437
  O        -1.5058711963        3.6610225583        5.0182586075
  H        -1.7934715168        4.6021462073        5.0554109970
  H        -1.4834648047        3.4391059108        5.9787713138
  O         3.7299850424        5.3693931207        0.0747887572
  H         4.4297514595        6.0517336143        0.2240968173
  H         4.1483886491        4.7069715786       -0.5066787381
  O        -9.5344085166       -0.8622830878        4.2288086022
  H        -9.0386911139       -0.0121722783        4.2694341678
  H        -8.8397211943       -1.5647035925        4.1590060035
  O         4.3653319419        2.5865815241        7.8825571880
  H         4.5187882112        3.5476991215        7.7302560937
  H         3.6476793229        2.5050669553        8.5422790939
  O       -10.5242176044       -3.6465509626       -1.2189775124
  H       -11.3016541793       -4.2283007399       -1.0603245671
  H       -10.4437172535       -3.0973152894       -0.3949269050
  O         3.6642634985       -2.1350217606       -6.3863688705
  H         4.3902769168       -2.4842867255       -5.8097449940
  H         4.0885037173       -2.0196647816       -7.2744560787
  O        -6.4498685941       -8.3154108154       -2.0040922676
  H        -5.8175463183       -8.8327762432       -2.5756389642
  H        -6.0318809696       -7.4403400099       -1.9514717668
  O         5.4455158252        9.1000329022        7.0949762723
  H         4.5497770204        8.7823469967        7.3117033966
  H         5.6402149412        8.8742343523        6.1538355081
  O         9.6758234680       14.4034623324        4.3738326021
  H        10.1635923829       14.1723186983        3.5524391568
  H        10.3869702735       14.9034510560        4.8702844194
  O         3.8741885411        3.1578701028       -2.0871595074
  H         3.9832981294        3.2479037970       -3.0592292173
  H         2.9346941455        3.3841593199       -1.8969088154
  O        -0.7253371712       -3.1394238737        3.3057893267
  H        -0.0836313305       -3.0375358509        4.0415001549
  H        -0.4227155447       -2.5273216357        2.5884569645
  O         4.8657128007       -1.3515952450        3.5818766533
  H         5.8227740722       -1.1533830050        3.6537516258
  H         4.7183385028       -2.1859169729        4.0763212876
  O        -1.7238390887       -5.1629490190       -6.0998183606
  H        -1.3031473451       -4.5771000276       -6.7729396201
  H        -2.6452249614       -4.8560787563       -6.0904473858
  O        -7.0970972453       -1.9336477052       -2.2939029872
  H        -7.8982556010       -2.0043128827       -2.8569662182
  H        -6.3221756165       -2.2269253652       -2.8110283988
  O        -7.8863438551        6.5987932772        4.6524302111
  H        -7.1857485429        7.1488224243        4.2216802932
  H        -7.8400516219        6.7709188839        5.6176190935
  O         8.9514940535        3.5173091844       -6.1652555428
  H         8.8319144706        3.7019319602       -7.1183411212
  H         8.1668113800        3.9580409851       -5.7503437792
  O         3.8652170934       -6.0942461104        9.2578378550
  H         3.2129613092       -5.5216733264        9.7605004308
  H         4.5142027464       -6.4340203945        9.9166317316
  O        -2.9365503949        9.0971462701       -0.6494763402
  H        -3.4152513836        9.2647046269       -1.4822094212
  H        -2.0749616449        8.6921839405       -0.9099767698
  O       -10.5455341206        4.7342720131       -5.2240797698
  H       -11.3165015881        4.1085152741       -5.1642920133
  H       -10.5253843653        5.1733685204       -4.3355827205
  O        -8.1064566143        1.5051470671        4.9482355181
  H        -7.1375216270        1.3728608352        5.1375931509
  H        -8.1710779218        2.4064532870        4.5526121574
  O        -7.8190414388        6.6577201425        7.5224486708
  H        -8.0760302280        5.7266571067        7.7367173447
  H        -8.6050203927        7.1863328962        7.8204368587
  O         5.7374731393       -7.5235907525       10.8960922329
  H         6.1287895004       -7.0381313221       11.6624943282
  H         6.4744396857       -7.6246071106       10.2680294655
  O        -4.2193421335       -3.3043536749       -0.5711216871
  H        -4.8476266919       -2.9102120229        0.0573804170
  H        -3.3229653803       -2.9639512478       -0.3108816276
  O         0.9997921032        5.9417460236       -2.8581342258
  H         0.3026925814        5.7896827148       -3.5312766133
  H         0.9578515656        5.1544754973       -2.2733392795
  O        -8.6764032878       -6.5907361039        3.2246592597
  H        -9.4861762091       -7.0573419816        2.9555838342
  H        -8.1462972722       -6.5722574180        2.3891519340
  O        -4.3791954487       -2.5729328381       -3.2914411329
  H        -4.2484406340       -3.0406715598       -2.4370135929
  H        -4.5649020330       -3.2350075616       -3.9849366874
  O         4.2289052233        1.0793726707        5.4489648617
  H         4.8060426854        0.3261896396        5.6785540058
  H         4.2651905279        1.6512072062        6.2488975630
  O         6.5299557443        4.4363687581        2.6441569822
  H         6.0423530778        3.5924529847        2.7808985880
  H         7.4534433663        4.2499264235        2.9630602927
  O         0.9294587460        6.9431263499        5.7433037200
  H         1.3802327585        6.1345201399        6.0665077962
  H         1.2065853033        7.1372682188        4.8164010162
  O         2.2282102470       -9.6097759345       -5.9429294897
  H         2.1668238369      -10.5531638080       -6.2010270410
  H         1.3250639462       -9.3662277470       -5.6247540517
  O        10.3176185048        1.3605164694       -0.9926587648
  H        10.6938690459        0.9764594681       -1.8079079973
  H        10.4546068811        0.6464890339       -0.3178205113
  O        -8.1746441516        1.0737035855       -4.9486013268
  H        -8.2773765610        1.8874493856       -5.5121675393
  H        -7.3034419076        1.2163521400       -4.5325965203
  O       -11.4712863670       -3.2221634484       -4.9538031398
  H       -10.8275077329       -2.7008316986       -4.3955006700
  H       -10.9079106298       -3.7340791104       -5.5543312196
  O        -3.5151390954       -4.5174308402        4.0741451799
  H        -2.5955994926       -4.4305703398        3.7741534563
  H        -3.5339148771       -4.1940686487        5.0150400824
  O        -1.2086907489        2.8572133652       -6.8868797422
  H        -0.5430870489        2.6752884192       -6.1918197588
  H        -1.9527188279        3.3349301430       -6.4395665519
  O        -3.1487011798        7.3141694854        2.0021125369
  H        -2.2577704901        6.9620782057        1.7487120712
  H        -3.4824377490        7.7825152840        1.2156792158
  O        -0.4235586681       -9.4622809984       -1.0045735739
  H        -0.4581230967      -10.0665474863       -0.2286091447
  H        -0.0865869104      -10.0296044649       -1.7332515682
  O         6.5245457027       -4.2354624259        2.8683342056
  H         7.3518310544       -4.6294362648        3.2057986782
  H         5.9528805949       -4.0544632337        3.6575632843
  O         2.0078559498        1.7981273715        2.4344275444
  H         1.4902781231        2.5918739388        2.7364607183
  H         2.9595898149        1.9321754574        2.6310383610
  O         9.0319525718        4.0121894536        3.6550658241
  H         9.2354447714        4.9026002719        4.0436341141
  H         9.6454679327        3.8698286695        2.8932770270
  O         5.8016567436        0.5693744437        0.9967716174
  H         6.4139002169        1.0758430089        0.4121775726
  H         5.0017665954        0.4411532100        0.4310681695
  O         0.7890660060        2.0816285043       -4.7408502112
  H         1.1242446855        2.8363975083       -4.2339349032
  H         0.6734336493        1.3634132923       -4.0688541358
  O        -3.8017866711       11.0321309336        7.8086414140
  H        -2.8368905080       10.8857658623        7.8332506497
  H        -4.1772100838       10.3195507303        7.2268431845
  O       -17.9167310357       -5.8122417937        7.0827466397
  H       -17.4449523095       -6.5882617121        7.4608488005
  H       -17.9768945642       -6.0498900026        6.1302256895
  O        -4.8851103228       10.6726097104        2.5812972005
  H        -4.6025096657       11.2408264907        3.3267757229
  H        -4.1903781461       10.8705981666        1.8989291460
  O         4.3019025617        3.2268290429       -5.0127294423
  H         4.4078296598        2.2815440027       -5.2810143366
  H         3.7572210811        3.6544584280       -5.7099176906
  O        -6.8060493966       -5.6666017521       -3.8572474631
  H        -5.9139232742       -5.8594218140       -3.4707858553
  H        -7.3817236647       -5.4416476982       -3.0703766239
  O         1.2806976773        1.5026127722        7.2330386930
  H         0.4578450837        1.1901808866        6.8125388651
  H         1.9570029206        0.8896707182        6.8855240547
  O        -3.5799079163        1.5033341495       -0.2828211025
  H        -2.7532612403        1.5163060980       -0.8486901127
  H        -4.3381466244        1.4007192875       -0.8842063389
  O        -1.9265761880       -8.5219771752        9.7513181737
  H        -2.3395940329       -9.3135194125        9.3301434238
  H        -1.2036943926       -8.2992883051        9.1305081001
  O         3.7218825867        7.0991673897       -3.3029644550
  H         2.9285131765        6.6491586222       -2.9465997939
  H         3.4158991001        7.3604934172       -4.1980440266
  O        -0.9266202152        0.2940135891        5.1686528458
  H        -1.7436301063       -0.2493216909        5.1734404682
  H        -1.0206153635        0.8162341409        4.3451579758
  O         0.6488031154       -5.5854108271       -0.5077421454
  H         0.6437384531       -4.6711552931       -0.8490116479
  H         0.3111822005       -5.5221876051        0.4115207950
  O        -8.8151572549       -3.7992507430       -6.3082731913
  H        -8.9750269371       -2.8148642363       -6.2812790981
  H        -7.8569286315       -3.8490047776       -6.4883612986
  O        -2.7286477623        1.8580818956       -4.0049761029
  H        -2.4612065586        1.1634090670       -4.6373166969
  H        -2.0887370316        1.7843148357       -3.2547278731
  O        -3.7902928749       -3.2931358854        9.7464602084
  H        -2.9458681747       -3.3257346774        9.2361662128
  H        -3.6281058734       -2.5927592098       10.4008468811
  O         7.4396510509       -1.9499829011       -3.2840212976
  H         7.1456804047       -1.0115847949       -3.1767638597
  H         7.0771596732       -2.4541273322       -2.5122731591
  O         1.0694401508       -3.5195803874        5.6629977084
  H         0.5589960102       -4.0467590698        6.3049372542
  H         1.5797935705       -4.2084435900        5.1707525184
  O         2.3578425638       -3.7279750207        2.1523019776
  H         2.7978464217       -3.7745791732        1.2853065063
  H         1.7143821926       -3.0041594856        2.0210357535
  O         8.8071375543       -5.3838047689       -1.7147116246
  H         9.2460231349       -5.5751003742       -0.8636835393
  H         8.1253492408       -4.6961858607       -1.5077263242
  O       -10.4495063738        0.7828744235       -3.3680904351
  H        -9.6367560801        0.9786903909       -3.9003657522
  H       -11.1746245484        0.7400906484       -4.0329408716
  O         2.4261289580       -1.3609226873        7.0244028997
  H         2.0841929576       -2.1422813523        6.5362666395
  H         3.2880119688       -1.6429369827        7.4160385652
  O        -7.5114044039        5.2309617027       -0.5072001320
  H        -8.4807795104        5.0598508514       -0.6252510181
  H        -7.0387675447        4.9608523890       -1.3179472610
  O        -0.6524414576       -5.5851938403        2.0734717846
  H        -0.5838917573       -4.6674537534        2.4426873831
  H        -1.5142969921       -5.5803633217        1.5824143208
  O        -6.5138310607       -3.0112818450       -8.3940100771
  H        -6.7027643230       -3.5518792184       -9.1925542884
  H        -5.5622119488       -3.1480722015       -8.1922674844
  O        -5.5832233600        1.0791356314        5.8051845936
  H        -5.3871463005        1.5843958579        6.6410815447
  H        -4.8771088323        1.3855137671        5.1774734521
  O        -7.3853422806       -3.0042626707        0.2160758401
  H        -8.2836141199       -2.7305093184        0.4973780595
  H        -7.3228161513       -2.7337167245       -0.7362237036
  O         3.1528714296        5.0174887985       10.2437733255
  H         2.7519291233        4.8397569527        9.3710857758
  H         3.9493117248        5.5646776712       10.0729972122
  O         1.3637154300        3.7941507235       -0.9949124625
  H         1.0604790300        2.9247883355       -0.6373477153
  H         1.7612318552        4.2724266184       -0.2466159051
  O        -0.5757591421       -7.0297454555        4.3695457087
  H        -0.7110875041       -6.5051027215        3.5319785803
  H        -1.3978879425       -7.5746969825        4.4471356832
  O        -4.9519028189        0.2900767793       -3.1538881630
  H        -4.5503345439       -0.5825852287       -2.9764480898
  H        -4.2088400360        0.8715511852       -3.4487980494
  O        -9.3154170348       -1.1378978667       10.8204486473
  H        -8.8120525049       -0.4833969509       11.3532107932
  H       -10.2465659753       -0.9087765693       10.9739528579
  O        -5.8800289082        7.8914196882        3.1594373967
  H        -6.0486452967        7.7690976804        2.1979366644
  H        -5.5775651373        8.8190079753        3.2057295935
  O        -2.1569053963        4.4406799374       -1.6450239491
  H        -2.2043030568        4.6143588959       -0.6848449422
  H        -1.6949334482        3.5725271419       -1.6815509107
  O        -1.7902100678        6.4385470629      -11.3980871764
  H        -0.8143998236        6.6014211496      -11.4377063979
  H        -2.2029031964        7.1865542206      -11.9120461334
  O         1.0673207371        7.8818990215        3.1532995448
  H         0.5698495455        8.6834234518        3.4236051889
  H         1.8662306794        8.2034617619        2.6521785560
  O        -9.8103762091        2.0056977178       -0.9300720830
  H       -10.1688223381        1.6443741427       -1.7777695615
  H        -8.8483772144        1.7877193272       -0.9550394442
  O         3.8752077723       -4.8686641606       -3.5790198690
  H         4.6385044744       -4.4155286729       -3.9991926358
  H         4.1860302795       -5.7551715977       -3.3150340308
  O         2.8682349352       -1.4311776418       -3.0097986890
  H         3.2246045523       -2.1081841489       -2.3977425821
  H         3.0346126509       -0.6075049755       -2.4959884930
  O        -2.7899496048        6.4431796965       -8.8913545383
  H        -2.4200458994        6.5367287928       -9.8171532299
  H        -3.7544542629        6.4701906016       -9.0230409914
  O        10.3146789451        6.7300801670       12.2482118182
  H        10.3423551890        6.2341183140       11.4134430251
  H         9.9131137787        7.6115828455       12.0638454409
  O         5.5891173625      -10.5389625266       -6.8841486828
  H         6.0228914378      -11.1770827521       -6.2505867394
  H         5.3579546703       -9.7397162016       -6.3724250195
  O         0.2961318842       -8.4524876505        7.8813856586
  H         1.2499797613       -8.4003372914        8.1968306437
  H         0.3908870741       -8.9357239490        7.0312990521
  O         0.0721409805      -11.1804347210       -8.0249263545
  H         0.0769477522      -10.2613888728       -8.3613191912
  H        -0.8648341440      -11.3601929121       -7.8459999484
  O         7.1600062917       -2.1528127375        1.0094971196
  H         6.7510291930       -1.2662606734        1.1120149809
  H         6.8668357403       -2.6968069160        1.7758736019
  O         2.8634708070       -8.5267068830       -8.5237555951
  H         2.7367851779       -8.9228188645       -7.6275363309
  H         3.1683056110       -7.5962667408       -8.3239457641
  O        -8.0209107286       -7.8868872641       -5.0201421392
  H        -7.5004940006       -7.1647609905       -4.5794367230
  H        -8.7495522393       -8.0685739469       -4.3846326258
  O        -8.0954514424        9.9610370497       -7.6622120173
  H        -8.1924942546        9.7981549701       -6.6870236064
  H        -8.6065650509        9.2167815200       -8.0634248958
  O         6.9544680902        4.7212652427       -0.4983640220
  H         6.6972937884        4.8501347830        0.4387598171
  H         7.0099947862        3.7374947321       -0.6336549079
  O        -0.7914457625        0.9408877124        2.3642213079
  H        -1.5795774256        0.4134038563        2.0576899534
  H        -0.9761509698        1.8542824831        2.0703092820
  O         2.2215325526       11.6169392627        4.0861492287
  H         1.5264583250       10.9425890527        4.1551167294
  H         2.0877322160       12.1000799767        3.2308293932
  O         3.2918400684        4.7337491008        2.8635911626
  H         3.7861391394        3.8913452298        2.9344356569
  H         3.4194904247        4.9867924023        1.9175610910
  O         8.2440104965        4.1557493631        8.1716070854
  H         8.4247028779        3.2170888589        7.9234370171
  H         7.3100265890        4.3201020583        7.9350788577
  O       -10.6821974894       -0.6427337148        6.7333190801
  H       -10.0657035935       -0.0347535088        7.1829114784
  H       -10.2404173109       -0.8527175354        5.8709423481
  O        -6.4538298754        7.6692876139        0.4312882513
  H        -6.9197721355        6.8395275582        0.1853610660
  H        -6.2794875835        8.0953824866       -0.4463423988
  O        -0.4282858523       -5.9477929484       -3.8711886182
  H        -0.2769368302       -6.9054210268       -3.9819140343
  H        -0.9128803434       -5.6701252079       -4.6963755762
  O        -0.6315917299      -10.8877937396        1.4459569060
  H        -0.5551062439      -11.8343603313        1.6742444780
  H        -0.0037716245      -10.4165878835        2.0480153019
  O        -4.2919723281       -6.3726135146       -2.8589107437
  H        -3.9235186033       -6.7477655550       -3.7008776534
  H        -3.6536732945       -5.6784999456       -2.5700832951
  O         1.2859397324       -1.0766240561       -5.3711723996
  H         0.8495740848       -1.2053145131       -6.2443462334
  H         2.2126258079       -1.3380331686       -5.5790286515
  O        -3.7353449617       -3.6459324604        6.6581533018
  H        -4.5968675520       -3.1850723103        6.5836847055
  H        -3.8933435520       -4.4944069178        7.1384903598
  O         4.5936722828       13.3212824120        4.8075349515
  H         3.8772890720       12.7299131665        4.5127565586
  H         4.8307470100       12.9996451543        5.7189460232
  O        -3.0143085175       -0.4989442060        1.5047567260
  H        -3.2845076925        0.1565468182        0.8044123635
  H        -2.6444141147       -1.2696365065        1.0242484478
  O         0.5682494435        3.9467848288        3.1446817569
  H         1.3669025056        4.4677255235        3.3652125867
  H        -0.0019570739        3.8615251398        3.9462523540
  O         1.2196936318       -0.7866264824        3.8647597786
  H         0.4857070491       -0.5003513188        4.4719806117
  H         2.0429645829       -0.6800623934        4.3717897682
  O         2.1394469297       -7.9485920784       -0.7834359705
  H         1.7613480411       -7.0350443152       -0.7562469222
  H         1.3323305316       -8.5018728130       -0.8709688576
  O        -6.4414314422       -0.4324320509        1.0772160676
  H        -6.7418829389       -1.3513247001        0.8771653687
  H        -5.5597309109       -0.5591259604        1.4656912575
  O        -3.2218469114        4.2989878185       -5.7254656204
  H        -4.0272199322        4.5144508841       -6.2656428793
  H        -3.4945869151        3.6109298155       -5.0891926504
  O         9.6782967557       -7.3751826785        5.7287648045
  H         9.7054707586       -6.4461512469        6.0643791762
  H         9.3626122842       -7.2597300120        4.8035256259
  O        -5.7364713064       13.3429272532       -5.5026665402
  H        -5.4077744288       12.7545959116       -6.2087055642