 # File generated with Atomsk by lv87908 on 2026-03-23 14:57:04
  
         518  atoms
           4  atom types
 
      0.000000000000      17.200000000000  xlo xhi
      0.000000000000      17.200000000000  ylo yhi
      0.000000000000      17.200000000000  zlo zhi
 
Masses
 
            1   1.00800000              # H
            2   15.99900000             # O
            3   24.30500000             # Mg
            4   30.97376200             # P
 
Atoms # atomic
 
         1    3        3.319000000000       8.454000000000      11.568000000000
         2    2        7.740000000000      10.325000000000       5.919000000000
         3    4        9.138000000000      10.572000000000       6.413000000000
         4    2        9.989000000000      11.095000000000       5.168000000000
         5    2        9.286000000000      11.390000000000       7.667000000000
         6    2        9.903000000000       9.108000000000       6.489000000000
         7    4        9.472000000000       7.704000000000       7.353000000000
         8    2       10.258000000000       6.640000000000       6.450000000000
         9    2       10.133000000000       7.888000000000       8.715000000000
        10    2        7.964000000000       7.495000000000       7.379000000000
        11    3        8.303000000000      14.617000000000       0.310000000000
        12    2        7.553000000000      11.280000000000      14.515000000000
        13    1        9.086000000000       0.728000000000      11.277000000000
        14    1        7.909000000000      11.008000000000      13.636000000000
        15    2        7.718000000000      10.948000000000       2.811000000000
        16    1        8.184000000000      12.957000000000      15.136000000000
        17    1        7.067000000000      10.656000000000       2.226000000000
        18    2       17.199000000000       7.187000000000      16.191000000000
        19    1        0.128000000000       7.968000000000      16.775000000000
        20    1        0.215000000000       7.517000000000      15.258000000000
        21    2        8.649000000000      15.724000000000      13.657000000000
        22    1        9.568000000000      15.964000000000      13.782000000000
        23    1        8.560000000000      15.399000000000      12.733000000000
        24    2        4.212000000000      11.820000000000       7.664000000000
        25    1        4.164000000000      12.747000000000       7.349000000000
        26    1        4.948000000000      11.642000000000       8.246000000000
        27    2       13.561000000000       3.572000000000      14.518000000000
        28    1       14.280000000000       3.206000000000      15.083000000000
        29    1       13.887000000000       4.005000000000      13.765000000000
        30    2       12.383000000000       5.368000000000       7.615000000000
        31    1       12.853000000000       5.643000000000       6.799000000000
        32    1       12.742000000000       5.976000000000       8.275000000000
        33    2       12.890000000000       4.749000000000       0.673000000000
        34    1       13.436000000000       4.129000000000       1.189000000000
        35    1       15.566000000000      11.838000000000      13.165000000000
        36    2        0.487000000000      15.392000000000      13.365000000000
        37    1       14.927000000000      13.811000000000      12.554000000000
        38    1        0.852000000000      14.931000000000      14.122000000000
        39    2       11.739000000000      10.066000000000       9.688000000000
        40    1       11.214000000000       9.384000000000       9.270000000000
        41    1        7.101000000000       5.463000000000      10.344000000000
        42    2       12.528000000000      13.614000000000       0.747000000000
        43    1       13.369000000000      14.061000000000       0.638000000000
        44    1       12.511000000000      12.926000000000       0.006000000000
        45    2        6.474000000000      13.665000000000       0.754000000000
        46    1        6.085000000000      14.196000000000       1.408000000000
        47    1        5.995000000000      13.789000000000      17.116000000000
        48    2        0.055000000000       0.318000000000      11.107000000000
        49    1        0.732000000000       0.780000000000      10.578000000000
        50    1        0.452000000000      16.953000000000      11.744000000000
        51    2        3.715000000000      10.241000000000      10.691000000000
        52    1        2.325000000000      12.598000000000       2.375000000000
        53    1        3.273000000000      10.122000000000       9.850000000000
        54    2       14.188000000000      13.888000000000       4.941000000000
        55    1       14.086000000000      13.364000000000       5.790000000000
        56    1       13.401000000000      13.583000000000       4.427000000000
        57    2        8.265000000000      10.566000000000      11.850000000000
        58    1        8.240000000000       9.690000000000      11.399000000000
        59    1        7.772000000000      11.206000000000      11.263000000000
        60    2       11.447000000000      13.186000000000       7.923000000000
        61    1        7.176000000000      13.126000000000       9.031000000000
        62    1       10.742000000000      12.497000000000       7.746000000000
        63    2        2.699000000000       5.817000000000      15.825000000000
        64    1        0.804000000000      10.902000000000       4.967000000000
        65    1        1.841000000000       6.322000000000      15.889000000000
        66    2       12.768000000000       7.129000000000       9.661000000000
        67    1        2.213000000000       0.057000000000       2.390000000000
        68    1       12.251000000000      12.824000000000       7.525000000000
        69    2       10.289000000000       4.219000000000      11.215000000000
        70    1       10.340000000000       3.418000000000      11.815000000000
        71    1       10.363000000000       3.846000000000      10.317000000000
        72    2       10.373000000000       0.115000000000       6.305000000000
        73    1       10.185000000000       0.871000000000       5.733000000000
        74    1       11.290000000000       0.152000000000       6.622000000000
        75    2        2.192000000000      14.867000000000      10.679000000000
        76    1        1.845000000000      15.206000000000      11.524000000000
        77    1        3.688000000000       9.528000000000       2.021000000000
        78    2        2.286000000000      14.821000000000      16.161000000000
        79    1        1.630000000000      15.518000000000      16.286000000000
        80    1        1.787000000000      13.973000000000      16.096000000000
        81    2        1.760000000000      12.248000000000      11.369000000000
        82    1        1.036000000000      11.980000000000      10.777000000000
        83    1        1.800000000000      13.213000000000      11.332000000000
        84    2       12.220000000000      13.092000000000       3.266000000000
        85    1        6.649000000000      10.532000000000       8.587000000000
        86    1       11.301000000000      13.303000000000       3.510000000000
        87    2        0.040000000000       0.798000000000       5.131000000000
        88    1       16.566000000000       0.078000000000       4.977000000000
        89    1        0.690000000000       0.752000000000       4.467000000000
        90    2       15.031000000000       1.517000000000       9.243000000000
        91    1       15.491000000000       1.023000000000       9.961000000000
        92    1       14.482000000000       0.933000000000       8.724000000000
        93    2        3.343000000000      15.220000000000       4.439000000000
        94    1        3.187000000000      15.408000000000       3.488000000000
        95    1        9.889000000000      12.083000000000       4.976000000000
        96    2       14.651000000000      12.133000000000      13.110000000000
        97    1        3.194000000000      10.875000000000      11.151000000000
        98    1       13.720000000000       1.163000000000       2.181000000000
        99    2        4.491000000000       1.622000000000       2.146000000000
       100    1        4.258000000000      12.652000000000       3.837000000000
       101    1        5.306000000000       1.645000000000       2.703000000000
       102    2        4.132000000000       8.200000000000      15.787000000000
       103    1        3.683000000000       7.389000000000      16.061000000000
       104    1        4.351000000000       8.706000000000      16.589000000000
       105    2        4.898000000000       4.474000000000      12.192000000000
       106    1        4.595000000000       3.812000000000      11.506000000000
       107    1        3.599000000000       8.828000000000      14.295000000000
       108    2       11.037000000000       4.460000000000      15.002000000000
       109    1        8.109000000000      13.966000000000       7.196000000000
       110    1       10.698000000000       5.268000000000      14.576000000000
       111    2       12.970000000000      10.185000000000       2.268000000000
       112    1       13.481000000000      11.001000000000       2.084000000000
       113    1       13.640000000000       9.477000000000       2.186000000000
       114    2        8.959000000000      12.444000000000       0.883000000000
       115    1        8.884000000000      11.689000000000       0.257000000000
       116    1        8.672000000000      12.119000000000       1.751000000000
       117    2        6.317000000000      12.804000000000       4.711000000000
       118    1        6.912000000000      12.122000000000       4.330000000000
       119    1        6.466000000000      12.943000000000       5.674000000000
       120    2        2.631000000000       3.637000000000       5.186000000000
       121    1        2.077000000000       4.094000000000       5.808000000000
       122    1        2.385000000000       4.021000000000       4.399000000000
       123    2       17.196000000000      16.525000000000      16.843000000000
       124    1        0.387000000000      11.287000000000      14.121000000000
       125    1        5.003000000000      10.372000000000       0.817000000000
       126    2        3.769000000000      14.416000000000       7.042000000000
       127    1        2.853000000000      14.658000000000       7.332000000000
       128    1        4.038000000000      12.926000000000      11.005000000000
       129    2       13.820000000000       9.907000000000      11.866000000000
       130    1       14.321000000000       9.847000000000      11.031000000000
       131    1       14.177000000000       9.065000000000      12.287000000000
       132    2       14.519000000000      12.961000000000       7.741000000000
       133    1       14.533000000000      11.988000000000       7.836000000000
       134    1       13.543000000000       5.339000000000       0.207000000000
       135    2        1.053000000000       6.952000000000       6.565000000000
       136    1        5.202000000000      15.507000000000       3.158000000000
       137    1        2.034000000000       6.889000000000       6.374000000000
       138    2       15.642000000000       2.553000000000      15.757000000000
       139    1       16.219000000000       2.681000000000      16.554000000000
       140    1       15.926000000000       1.737000000000      15.295000000000
       141    2       12.137000000000       4.085000000000       3.705000000000
       142    1        8.646000000000       4.821000000000      11.757000000000
       143    1       12.483000000000       3.605000000000       2.936000000000
       144    2        8.847000000000       7.060000000000       0.090000000000
       145    1        7.039000000000       3.748000000000       8.740000000000
       146    1        9.641000000000       6.813000000000       0.589000000000
       147    2        4.727000000000      16.635000000000       0.388000000000
       148    1        4.585000000000      16.795000000000      16.638000000000
       149    1        5.725000000000      16.436000000000       0.345000000000
       150    2       16.362000000000       0.274000000000      14.468000000000
       151    1        6.002000000000       3.483000000000       7.637000000000
       152    1        0.501000000000      15.089000000000       6.384000000000
       153    2        1.137000000000       4.097000000000       7.604000000000
       154    1        1.170000000000       3.119000000000       7.733000000000
       155    1       12.314000000000      13.416000000000       2.343000000000
       156    2       14.757000000000       6.664000000000      16.848000000000
       157    1       15.740000000000       6.705000000000      16.651000000000
       158    1       14.253000000000       6.983000000000      16.069000000000
       159    2        8.727000000000      15.027000000000       2.334000000000
       160    1       12.511000000000       6.958000000000       4.207000000000
       161    1        7.940000000000      15.294000000000       2.784000000000
       162    2        5.234000000000       4.502000000000       6.300000000000
       163    1        2.416000000000      15.083000000000       4.758000000000
       164    1        4.384000000000       4.319000000000       5.815000000000
       165    2        0.487000000000       4.200000000000      11.879000000000
       166    1        1.339000000000       4.237000000000      12.383000000000
       167    1       17.112000000000       3.538000000000      12.310000000000
       168    2       14.376000000000       2.758000000000       2.373000000000
       169    1       15.055000000000       2.709000000000       1.714000000000
       170    1       14.896000000000       2.916000000000       3.285000000000
       171    2       17.090000000000       6.731000000000      13.169000000000
       172    1        0.382000000000       7.424000000000      12.654000000000
       173    1        0.127000000000       5.888000000000      12.774000000000
       174    2       16.905000000000      11.429000000000       9.843000000000
       175    1       17.113000000000      11.558000000000       8.866000000000
       176    1       16.817000000000      10.507000000000       9.985000000000
       177    2        2.945000000000       3.196000000000       0.446000000000
       178    1       13.588000000000      17.182000000000      13.158000000000
       179    1       11.910000000000       4.365000000000      14.543000000000
       180    2        5.170000000000      16.162000000000       8.951000000000
       181    1        4.951000000000      15.398000000000       8.303000000000
       182    1        4.420000000000      16.300000000000       9.526000000000
       183    2        1.385000000000      12.032000000000       7.682000000000
       184    1        1.271000000000      11.789000000000       6.725000000000
       185    1        2.331000000000      11.782000000000       7.799000000000
       186    2       12.681000000000      10.840000000000       5.255000000000
       187    1       12.514000000000      11.323000000000       4.377000000000
       188    1       11.776000000000      10.745000000000       5.577000000000
       189    2        1.666000000000      12.815000000000       1.659000000000
       190    1        0.851000000000      12.959000000000       2.080000000000
       191    1       13.832000000000      16.395000000000       6.994000000000
       192    2        9.244000000000       8.062000000000      11.435000000000
       193    1        9.363000000000       7.945000000000      10.472000000000
       194    1        8.562000000000       7.442000000000      11.659000000000
       195    2       14.897000000000       8.780000000000       9.559000000000
       196    1       14.302000000000       8.020000000000       9.628000000000
       197    1       15.851000000000       8.422000000000       9.445000000000
       198    2       14.538000000000       8.974000000000       5.856000000000
       199    1       14.344000000000       8.078000000000       5.769000000000
       200    1       13.999000000000       9.395000000000       5.194000000000
       201    2       13.466000000000      16.324000000000      13.577000000000
       202    1       13.999000000000      15.718000000000      13.051000000000
       203    1        4.469000000000       1.444000000000      15.178000000000
       204    2        6.748000000000       6.409000000000       1.316000000000
       205    1        7.444000000000       6.683000000000       0.652000000000
       206    1        7.128000000000       5.554000000000       1.484000000000
       207    2        9.637000000000       0.574000000000      10.526000000000
       208    1        8.897000000000       0.508000000000       9.811000000000
       209    1       12.685000000000       6.771000000000      10.596000000000
       210    2        0.755000000000       9.166000000000       0.878000000000
       211    1        0.492000000000       8.618000000000       1.586000000000
       212    1        0.140000000000       9.976000000000       0.979000000000
       213    2       10.481000000000       3.133000000000       8.637000000000
       214    1       11.381000000000       3.089000000000       8.386000000000
       215    1        0.467000000000      17.137000000000       0.175000000000
       216    2        7.137000000000       0.642000000000       9.557000000000
       217    1       13.889000000000      15.968000000000       9.798000000000
       218    1        7.672000000000       0.384000000000       2.868000000000
       219    2        1.645000000000       1.073000000000      13.978000000000
       220    1        1.778000000000       2.058000000000      14.049000000000
       221    1        0.786000000000       0.778000000000      14.242000000000
       222    2        8.133000000000       3.856000000000       1.781000000000
       223    1       11.189000000000       4.024000000000       3.725000000000
       224    1        8.419000000000       3.656000000000       0.875000000000
       225    2        7.302000000000       1.022000000000       2.162000000000
       226    1        7.986000000000      10.167000000000       3.235000000000
       227    1        0.992000000000      16.104000000000       8.297000000000
       228    2        7.261000000000      13.423000000000       7.270000000000
       229    1       12.581000000000      10.141000000000       9.164000000000
       230    1        8.656000000000       4.660000000000       3.270000000000
       231    2       17.139000000000      11.245000000000      13.264000000000
       232    1        0.827000000000       7.210000000000       7.432000000000
       233    1       16.758000000000      17.011000000000      16.106000000000
       234    2       10.388000000000      15.234000000000      17.185000000000
       235    1       14.284000000000      16.248000000000       1.151000000000
       236    1        0.516000000000       4.478000000000       8.208000000000
       237    2        7.067000000000       5.096000000000      15.002000000000
       238    1        6.827000000000       6.048000000000      14.910000000000
       239    1       11.077000000000      14.612000000000       0.230000000000
       240    2        6.527000000000       9.657000000000       8.935000000000
       241    1        7.358000000000       0.374000000000       1.375000000000
       242    1        6.873000000000       9.091000000000       8.215000000000
       243    2        7.924000000000       5.272000000000      12.246000000000
       244    1        8.080000000000       5.143000000000      13.164000000000
       245    1        5.554000000000      16.982000000000      11.848000000000
       246    2        2.823000000000      15.616000000000       1.787000000000
       247    1        2.443000000000      14.732000000000       1.561000000000
       248    1       15.512000000000      16.992000000000      14.434000000000
       249    2        8.672000000000       3.381000000000      16.263000000000
       250    1        9.644000000000       3.448000000000      16.032000000000
       251    1        8.259000000000       4.131000000000      15.798000000000
       252    2       13.858000000000      10.470000000000       8.071000000000
       253    1       16.398000000000       9.097000000000       5.505000000000
       254    1       14.255000000000       9.872000000000       8.726000000000
       255    2        0.261000000000       7.938000000000       9.387000000000
       256    1        0.664000000000       8.163000000000      10.298000000000
       257    1       17.191000000000       6.981000000000       9.501000000000
       258    2       14.648000000000       7.859000000000       2.118000000000
       259    1       14.500000000000       7.390000000000       1.300000000000
       260    1       14.306000000000       7.266000000000       2.775000000000
       261    2        8.340000000000      13.824000000000      15.578000000000
       262    1        9.620000000000       2.918000000000       4.893000000000
       263    1        8.518000000000      14.499000000000      14.892000000000
       264    2        1.942000000000      16.143000000000       8.501000000000
       265    1        3.518000000000       3.815000000000      13.611000000000
       266    1        2.158000000000      17.053000000000       8.166000000000
       267    2        4.618000000000      13.653000000000      11.112000000000
       268    1       16.122000000000      16.685000000000       7.117000000000
       269    1        3.936000000000      14.308000000000      11.229000000000
       270    2        4.758000000000       9.300000000000       3.465000000000
       271    1        5.629000000000       8.907000000000       3.281000000000
       272    1        4.693000000000       9.270000000000       4.421000000000
       273    2        5.014000000000       9.703000000000       6.141000000000
       274    1        9.015000000000      15.181000000000       9.899000000000
       275    1        5.977000000000       9.844000000000       6.051000000000
       276    2        7.297000000000       8.307000000000       3.065000000000
       277    1        7.456000000000       7.802000000000       3.925000000000
       278    1        7.144000000000       7.649000000000       2.342000000000
       279    2       13.701000000000      11.497000000000      16.126000000000
       280    1       13.346000000000      10.601000000000      16.106000000000
       281    1       13.857000000000      11.785000000000      15.202000000000
       282    2        6.990000000000       6.653000000000       5.186000000000
       283    1        7.560000000000       6.016000000000       4.725000000000
       284    1        7.499000000000       6.876000000000       6.013000000000
       285    2        7.391000000000      16.438000000000       0.215000000000
       286    1        4.656000000000      12.545000000000      14.389000000000
       287    1        7.447000000000      17.085000000000      16.655000000000
       288    2        5.961000000000      14.955000000000       3.027000000000
       289    1        6.036000000000      14.270000000000       3.740000000000
       290    1       11.426000000000      10.522000000000      11.064000000000
       291    2       14.809000000000      16.507000000000       4.942000000000
       292    1       14.407000000000      16.736000000000       4.143000000000
       293    1       14.762000000000      15.530000000000       4.939000000000
       294    2        2.290000000000       1.055000000000       6.981000000000
       295    1        1.376000000000       1.328000000000       6.633000000000
       296    1        2.902000000000       1.516000000000       6.396000000000
       297    2       13.329000000000       6.484000000000       4.407000000000
       298    1        7.783000000000       2.977000000000       2.114000000000
       299    1       13.024000000000       5.608000000000       4.137000000000
       300    2        1.143000000000      11.767000000000       4.910000000000
       301    1        4.757000000000       1.763000000000      10.684000000000
       302    1        2.008000000000      11.841000000000       4.592000000000
       303    2        8.275000000000      15.819000000000       5.050000000000
       304    1        8.861000000000      16.583000000000       5.081000000000
       305    1        7.419000000000      16.167000000000       5.342000000000
       306    2        8.788000000000      14.754000000000      10.753000000000
       307    1        8.198000000000      14.044000000000      10.462000000000
       308    1        7.879000000000       1.969000000000      15.658000000000
       309    2        4.166000000000       0.630000000000      14.752000000000
       310    1        3.226000000000       0.753000000000      14.472000000000
       311    1       16.888000000000       6.199000000000       5.459000000000
       312    2       11.078000000000      16.454000000000      14.781000000000
       313    1       11.095000000000       0.196000000000      14.495000000000
       314    1       11.975000000000      16.110000000000      14.461000000000
       315    2       10.981000000000      11.005000000000      11.870000000000
       316    1        5.306000000000      14.395000000000      15.059000000000
       317    1       10.989000000000      11.972000000000      11.659000000000
       318    2        6.978000000000       5.472000000000       9.341000000000
       319    1        3.699000000000      14.437000000000       6.094000000000
       320    1        7.356000000000       6.297000000000       9.091000000000
       321    2        1.802000000000       0.896000000000       2.537000000000
       322    1        2.611000000000       1.489000000000       2.707000000000
       323    1        1.565000000000       2.783000000000       9.765000000000
       324    2        4.611000000000      11.992000000000      13.538000000000
       325    1        4.690000000000      12.678000000000      12.848000000000
       326    1        2.118000000000       2.745000000000       0.226000000000
       327    2        5.936000000000      15.913000000000      13.845000000000
       328    1        6.837000000000      16.033000000000      14.147000000000
       329    1        3.657000000000      15.650000000000       1.231000000000
       330    2        1.223000000000       8.507000000000      11.639000000000
       331    1        0.858000000000       9.260000000000      12.117000000000
       332    1        5.336000000000      16.521000000000      14.324000000000
       333    2       11.435000000000       8.328000000000       4.000000000000
       334    1       10.589000000000       8.233000000000       4.384000000000
       335    1       11.792000000000       9.092000000000       4.441000000000
       336    2        4.446000000000       5.980000000000       3.806000000000
       337    1        5.361000000000       6.222000000000       3.687000000000
       338    1       10.968000000000       6.150000000000       6.993000000000
       339    2        9.117000000000       5.386000000000       3.782000000000
       340    1        0.052000000000      16.159000000000      13.804000000000
       341    1        9.721000000000       5.814000000000       3.182000000000
       342    2       16.169000000000      11.429000000000       0.334000000000
       343    1       15.992000000000      11.948000000000       1.100000000000
       344    1       15.276000000000      11.359000000000      17.056000000000
       345    2       14.837000000000      15.549000000000       0.691000000000
       346    1        4.138000000000       6.171000000000       2.905000000000
       347    1       10.610000000000      15.560000000000      16.324000000000
       348    2        9.286000000000       2.097000000000       4.413000000000
       349    1        8.348000000000       2.163000000000       4.273000000000
       350    1        4.698000000000       0.903000000000       1.528000000000
       351    2       12.668000000000       7.733000000000      15.216000000000
       352    1       12.332000000000       8.178000000000      15.987000000000
       353    1       13.012000000000       8.430000000000      14.618000000000
       354    2       16.014000000000      13.529000000000       2.364000000000
       355    1       15.677000000000      13.510000000000       3.314000000000
       356    1       15.420000000000      14.193000000000       2.015000000000
       357    2       12.233000000000       0.087000000000       9.915000000000
       358    1       12.377000000000       0.066000000000       8.960000000000
       359    1       11.253000000000       0.248000000000      10.085000000000
       360    2        3.041000000000       7.523000000000       9.823000000000
       361    1        2.092000000000       7.258000000000       9.627000000000
       362    1        3.662000000000       6.787000000000       9.585000000000
       363    2       10.989000000000       2.086000000000      13.132000000000
       364    1       10.209000000000       2.327000000000       9.111000000000
       365    1       11.061000000000       2.714000000000      13.860000000000
       366    2        2.532000000000       3.912000000000      13.685000000000
       367    1       13.444000000000       0.682000000000       6.631000000000
       368    1        2.478000000000       4.250000000000      14.577000000000
       369    2       10.297000000000       7.011000000000      14.187000000000