 #  i =      476, E =     -3170.7058833769
  
         518  atoms
           4  atom types
 
      0.000000000000      17.200000000000  xlo xhi
      0.000000000000      17.200000000000  ylo yhi
      0.000000000000      17.200000000000  zlo zhi
 
Masses
 
            1   1.00800000              # H
            2   15.99900000             # O
            3   24.30500000             # Mg
            4   30.97376200             # P
 
Atoms # atomic
 
         1    4       -0.164084044900       0.639887963200      -1.341733529800
         2    2       -1.070207576500      -0.628530860800      -0.777051133700
         3    2        0.859085148600       0.997039540200      -0.224036313900
         4    2       -1.219428471900       1.734109405200      -1.585192757800
         5    2        0.495250944900       0.155568238800      -2.654682142000
         6    3        1.146720404600       0.071274689400       1.862167243500
         7    4       -0.420900544100      -2.021059256800      -0.176373653200
         8    2        0.346980004900      -1.658127225800       1.138659298300
         9    2        0.502796911400      -2.584822030100      -1.284459546200
        10    2       -1.652673401200      -2.873519376000       0.144558189700
        11    3        0.718431713600      -1.721137204200      -3.439126405400
        12    2       -5.441851785000       4.869634715000      -7.306604585800
        13    1       -5.434744542500       5.795471770800      -7.635856074700
        14    1       -5.372671384300       4.289565669100      -8.094066884400
        15    2       -5.450987797800      -1.647572089800     -11.541042008000
        16    1       -5.570982111700      -0.680033201900     -11.354476501600
        17    1       -4.663227887300      -1.635141805800     -12.142238177600
        18    2        6.306305590600       8.386036629700       4.514060003900
        19    1        7.258904978700       8.179710818900       4.549130129300
        20    1        5.875086810100       7.491648724800       4.407078592400
        21    2       -1.151668871300      -3.524148228400       8.887655910500
        22    1       -0.903213919200      -4.171045626700       8.200695683200
        23    1       -0.462174917300      -2.807730103300       8.914781996700
        24    2        3.652463274900       0.576069731200      -1.013662060600
        25    1        2.743994692500       0.694239868300      -0.654304516800
        26    1        3.834276062000       1.441589312700      -1.453802825600
        27    2        3.224781462800      -8.519996128200       1.648480791200
        28    1        3.709260085000      -7.726976048000       1.960868770200
        29    1        2.837740589400      -8.278051674300       0.752270074600
        30    2       -7.452299293100      -4.656865726000       6.593439182000
        31    1       -8.287343986700      -4.675387071700       7.124399990300
        32    1       -7.612023446400      -4.096204209300       5.798790783300
        33    2        7.741223169600      12.122592305200       8.457159070600
        34    1        7.851900321100      12.746583920600       9.216300664800
        35    1        8.167851524700      11.301254018200       8.807542663500
        36    2       -4.948179139200     -11.460572761000       6.297994014100
        37    1       -4.637362619800     -11.623088950300       5.387569097700
        38    1       -5.914664288500     -11.474916443700       6.211004837200
        39    2      -10.310955401500      -5.939807899900      -4.237108661900
        40    1       -9.636691040800      -5.352833389100      -4.625391974000
        41    1       -9.900474906400      -6.284805360900      -3.425721202900
        42    2       -3.726411252300      -7.599757294700      -5.232793907200
        43    1       -4.408980927900      -7.258744639000      -5.861706620300
        44    1       -2.921037242000      -7.651953434300      -5.781667213500
        45    2       -2.144844527600      -4.523354350800      -2.235889359600
        46    1       -1.435906298800      -5.126001906300      -2.566147833200
        47    1       -1.832225174300      -4.168465341200      -1.376313821000
        48    2       -2.868626196400      -8.668586811700       4.504643357000
        49    1       -3.122706153800      -8.976715872400       3.600109564100
        50    1       -3.704952483700      -8.437708195200       4.980772796200
        51    2        2.504892225500       1.438557928000      10.022097536100
        52    1        1.999680991600       1.579832363400      10.848896782900
        53    1        1.827290817200       1.235388711400       9.351549154400
        54    2       -5.375568626800      -6.379393289100      10.099131053600
        55    1       -4.788341382900      -6.277790967000       9.308116705800
        56    1       -6.265803959700      -6.592252874100       9.748141794100
        57    2        5.026309338900       0.575719603600      -5.589849738200
        58    1        5.489063010200       0.810627002100      -6.442919097900
        59    1        4.310660553400      -0.039056308200      -5.834063279000
        60    2       -2.427352190000       3.717281695600       1.281432838900
        61    1       -2.981919434500       3.045191365000       0.833573363900
        62    1       -3.025963262300       4.139958597000       1.934957542200
        63    2        6.303305460300       1.363463946900       9.396482592000
        64    1        5.690503241200       1.815400446700       8.770338743900
        65    1        7.154870562900       1.270342962700       8.931747623600
        66    2        4.857039741700      -2.147696326900       8.309422138600
        67    1        5.526325857900      -1.600589426300       7.825819434200
        68    1        5.013021316700      -3.075154129400       7.998931372800
        69    2       -3.079283283700      -5.745414229100       0.715637750300
        70    1       -3.446719077400      -4.998824931900       0.196474964100
        71    1       -2.954975500700      -6.514233236600       0.098134647700
        72    2        4.729978802900      -7.380746364500      -2.291478305600
        73    1        4.101334583900      -8.129671669800      -2.313431988400
        74    1        5.616067265100      -7.757403096400      -2.444679286800
        75    2       -7.161964705800      -6.667958128400       0.866510320300
        76    1       -7.144765091900      -7.638452221400       0.727598575000
        77    1       -6.347620604500      -6.503274175500       1.400130024300
        78    2        6.371682807900     -11.029567235700      -2.860447671100
        79    1        6.444620609400     -11.533375136100      -2.015020324900
        80    1        5.415524514500     -10.792182338100      -2.962600327500
        81    2       -4.805294841300       2.588683372100       7.962866463500
        82    1       -4.708190482200       2.092163429900       8.818360288200
        83    1       -3.888863850800       2.884768907400       7.768308102000
        84    2       -1.643114543300       0.224813266700       9.395301573400
        85    1       -2.328584672400       0.026211689600       8.702562019000
        86    1       -1.658660541000       1.185288890900       9.616934271600
        87    2       -5.589283032800      -1.002243704400      -5.729526821500
        88    1       -5.647981886900      -0.656198711100      -4.813202749000
        89    1       -5.762485041800      -1.970187245500      -5.677559675000
        90    2       -2.650894048500      -0.791604573000      -5.516411817500
        91    1       -3.627575350700      -0.777743527100      -5.539694811500
        92    1       -2.323747006600      -0.440668940100      -6.392145839600
        93    2       -1.571832866000     -11.321629321200      -4.075938079000
        94    1       -1.864981240500     -11.651608457700      -3.198169119200
        95    1       -2.149418104100     -11.786128314600      -4.724349838300
        96    2       -6.515326666400       3.590171847100       1.442238952900
        97    1       -6.872162272100       4.158188201500       0.710179229200
        98    1       -6.411291411900       2.713628069400       1.035257259600
        99    2       -8.602585549600       1.364262263200       7.660355974400
       100    1       -8.463471354400       1.424521626400       6.675745472800
       101    1       -7.851300510700       0.819463956800       8.014877225300
       102    2       -3.720905705200       2.079776532700       4.014470036900
       103    1       -4.168375279300       2.799147316800       3.540455376900
       104    1       -2.946721337300       2.549101715000       4.405284525600
       105    2        5.582744092100      -9.893515995900       0.923439719000
       106    1        4.809684180700      -9.379342800000       1.261620521000
       107    1        6.016582202800      -9.280666471800       0.310238102500
       108    2        1.653375990500       4.588097120300       7.386184881600
       109    1        1.491990063300       3.633333356600       7.250758842700
       110    1        0.934960709900       4.912008435700       7.980141605900
       111    2      -11.816672146400       5.152866647700       7.243050033600
       112    1      -11.995226931500       5.963487148500       7.744498854200
       113    1      -11.889178355600       5.401804806900       6.285929255400
       114    2        2.078489393700      -4.437291696700      -6.808478779400
       115    1        1.712041045500      -4.553293250600      -5.912975926200
       116    1        2.571314794300      -3.586062475500      -6.714620721500
       117    2       -0.427158458500      -8.883613522100      12.180186063700
       118    1       -0.919157724700      -8.789207347800      11.331274931400
       119    1       -0.859693299700      -9.657816984800      12.606196023800
       120    2       -1.151698468200      -2.368522822500      -3.938823357000
       121    1       -1.793190710500      -1.840905247400      -4.479428357700
       122    1       -1.661467219000      -2.992382581600      -3.377808096600
       123    2       -2.077708249500       3.584925413300       7.744763104300
       124    1       -1.585451486000       3.308408830200       8.550152849000
       125    1       -2.330625336200       4.515429769900       7.925546667300
       126    2        4.587299997000      -5.379358451500      -0.360425511500
       127    1        4.560074402200      -6.147534596100      -0.983548557400
       128    1        4.903359210300      -5.747147483300       0.481167991300
       129    2        5.236301004500      -4.723031373400       7.315442927900
       130    1        6.151814055400      -4.951885919000       7.608061033200
       131    1        4.665308676800      -5.284562466100       7.899996871500
       132    2       -4.311912630400       5.011859908200       3.079441010800
       133    1       -5.108821916900       4.756914571500       2.574340952700
       134    1       -4.085315818100       5.913514851700       2.742290143700
       135    2       -1.505871196300       3.661022558300       5.018258607500
       136    1       -1.793471516800       4.602146207300       5.055410997000
       137    1       -1.483464804700       3.439105910800       5.978771313800
       138    2        3.729985042400       5.369393120700       0.074788757200
       139    1        4.429751459500       6.051733614300       0.224096817300
       140    1        4.148388649100       4.706971578600      -0.506678738100
       141    2       -9.534408516600      -0.862283087800       4.228808602200
       142    1       -9.038691113900      -0.012172278300       4.269434167800
       143    1       -8.839721194300      -1.564703592500       4.159006003500
       144    2        4.365331941900       2.586581524100       7.882557188000
       145    1        4.518788211200       3.547699121500       7.730256093700
       146    1        3.647679322900       2.505066955300       8.542279093900
       147    2      -10.524217604400      -3.646550962600      -1.218977512400
       148    1      -11.301654179300      -4.228300739900      -1.060324567100
       149    1      -10.443717253500      -3.097315289400      -0.394926905000
       150    2        3.664263498500      -2.135021760600      -6.386368870500
       151    1        4.390276916800      -2.484286725500      -5.809744994000
       152    1        4.088503717300      -2.019664781600      -7.274456078700
       153    2       -6.449868594100      -8.315410815400      -2.004092267600
       154    1       -5.817546318300      -8.832776243200      -2.575638964200
       155    1       -6.031880969600      -7.440340009900      -1.951471766800
       156    2        5.445515825200       9.100032902200       7.094976272300
       157    1        4.549777020400       8.782346996700       7.311703396600
       158    1        5.640214941200       8.874234352300       6.153835508100
       159    2        9.675823468000      14.403462332400       4.373832602100
       160    1       10.163592382900      14.172318698300       3.552439156800
       161    1       10.386970273500      14.903451056000       4.870284419400
       162    2        3.874188541100       3.157870102800      -2.087159507400
       163    1        3.983298129400       3.247903797000      -3.059229217300
       164    1        2.934694145500       3.384159319900      -1.896908815400
       165    2       -0.725337171200      -3.139423873700       3.305789326700
       166    1       -0.083631330500      -3.037535850900       4.041500154900
       167    1       -0.422715544700      -2.527321635700       2.588456964500
       168    2        4.865712800700      -1.351595245000       3.581876653300
       169    1        5.822774072200      -1.153383005000       3.653751625800
       170    1        4.718338502800      -2.185916972900       4.076321287600
       171    2       -1.723839088700      -5.162949019000      -6.099818360600
       172    1       -1.303147345100      -4.577100027600      -6.772939620100
       173    1       -2.645224961400      -4.856078756300      -6.090447385800
       174    2       -7.097097245300      -1.933647705200      -2.293902987200
       175    1       -7.898255601000      -2.004312882700      -2.856966218200
       176    1       -6.322175616500      -2.226925365200      -2.811028398800
       177    2       -7.886343855100       6.598793277200       4.652430211100
       178    1       -7.185748542900       7.148822424300       4.221680293200
       179    1       -7.840051621900       6.770918883900       5.617619093500
       180    2        8.951494053500       3.517309184400      -6.165255542800
       181    1        8.831914470600       3.701931960200      -7.118341121200
       182    1        8.166811380000       3.958040985100      -5.750343779200
       183    2        3.865217093400      -6.094246110400       9.257837855000
       184    1        3.212961309200      -5.521673326400       9.760500430800
       185    1        4.514202746400      -6.434020394500       9.916631731600
       186    2       -2.936550394900       9.097146270100      -0.649476340200
       187    1       -3.415251383600       9.264704626900      -1.482209421200
       188    1       -2.074961644900       8.692183940500      -0.909976769800
       189    2      -10.545534120600       4.734272013100      -5.224079769800
       190    1      -11.316501588100       4.108515274100      -5.164292013300
       191    1      -10.525384365300       5.173368520400      -4.335582720500
       192    2       -8.106456614300       1.505147067100       4.948235518100
       193    1       -7.137521627000       1.372860835200       5.137593150900
       194    1       -8.171077921800       2.406453287000       4.552612157400
       195    2       -7.819041438800       6.657720142500       7.522448670800
       196    1       -8.076030228000       5.726657106700       7.736717344700
       197    1       -8.605020392700       7.186332896200       7.820436858700
       198    2        5.737473139300      -7.523590752500      10.896092232900
       199    1        6.128789500400      -7.038131322100      11.662494328200
       200    1        6.474439685700      -7.624607110600      10.268029465500
       201    2       -4.219342133500      -3.304353674900      -0.571121687100
       202    1       -4.847626691900      -2.910212022900       0.057380417000
       203    1       -3.322965380300      -2.963951247800      -0.310881627600
       204    2        0.999792103200       5.941746023600      -2.858134225800
       205    1        0.302692581400       5.789682714800      -3.531276613300
       206    1        0.957851565600       5.154475497300      -2.273339279500
       207    2       -8.676403287800      -6.590736103900       3.224659259700
       208    1       -9.486176209100      -7.057341981600       2.955583834200
       209    1       -8.146297272200      -6.572257418000       2.389151934000
       210    2       -4.379195448700      -2.572932838100      -3.291441132900
       211    1       -4.248440634000      -3.040671559800      -2.437013592900
       212    1       -4.564902033000      -3.235007561600      -3.984936687400
       213    2        4.228905223300       1.079372670700       5.448964861700
       214    1        4.806042685400       0.326189639600       5.678554005800
       215    1        4.265190527900       1.651207206200       6.248897563000
       216    2        6.529955744300       4.436368758100       2.644156982200
       217    1        6.042353077800       3.592452984700       2.780898588000
       218    1        7.453443366300       4.249926423500       2.963060292700
       219    2        0.929458746000       6.943126349900       5.743303720000
       220    1        1.380232758500       6.134520139900       6.066507796200
       221    1        1.206585303300       7.137268218800       4.816401016200
       222    2        2.228210247000      -9.609775934500      -5.942929489700
       223    1        2.166823836900     -10.553163808000      -6.201027041000
       224    1        1.325063946200      -9.366227747000      -5.624754051700
       225    2       10.317618504800       1.360516469400      -0.992658764800
       226    1       10.693869045900       0.976459468100      -1.807907997300
       227    1       10.454606881100       0.646489033900      -0.317820511300
       228    2       -8.174644151600       1.073703585500      -4.948601326800
       229    1       -8.277376561000       1.887449385600      -5.512167539300
       230    1       -7.303441907600       1.216352140000      -4.532596520300
       231    2      -11.471286367000      -3.222163448400      -4.953803139800
       232    1      -10.827507732900      -2.700831698600      -4.395500670000
       233    1      -10.907910629800      -3.734079110400      -5.554331219600
       234    2       -3.515139095400      -4.517430840200       4.074145179900
       235    1       -2.595599492600      -4.430570339800       3.774153456300
       236    1       -3.533914877100      -4.194068648700       5.015040082400
       237    2       -1.208690748900       2.857213365200      -6.886879742200
       238    1       -0.543087048900       2.675288419200      -6.191819758800
       239    1       -1.952718827900       3.334930143000      -6.439566551900
       240    2       -3.148701179800       7.314169485400       2.002112536900
       241    1       -2.257770490100       6.962078205700       1.748712071200
       242    1       -3.482437749000       7.782515284000       1.215679215800
       243    2       -0.423558668100      -9.462280998400      -1.004573573900
       244    1       -0.458123096700     -10.066547486300      -0.228609144700
       245    1       -0.086586910400     -10.029604464900      -1.733251568200
       246    2        6.524545702700      -4.235462425900       2.868334205600
       247    1        7.351831054400      -4.629436264800       3.205798678200
       248    1        5.952880594900      -4.054463233700       3.657563284300
       249    2        2.007855949800       1.798127371500       2.434427544400
       250    1        1.490278123100       2.591873938800       2.736460718300
       251    1        2.959589814900       1.932175457400       2.631038361000
       252    2        9.031952571800       4.012189453600       3.655065824100
       253    1        9.235444771400       4.902600271900       4.043634114100
       254    1        9.645467932700       3.869828669500       2.893277027000
       255    2        5.801656743600       0.569374443700       0.996771617400
       256    1        6.413900216900       1.075843008900       0.412177572600
       257    1        5.001766595400       0.441153210000       0.431068169500
       258    2        0.789066006000       2.081628504300      -4.740850211200
       259    1        1.124244685500       2.836397508300      -4.233934903200
       260    1        0.673433649300       1.363413292300      -4.068854135800
       261    2       -3.801786671100      11.032130933600       7.808641414000
       262    1       -2.836890508000      10.885765862300       7.833250649700
       263    1       -4.177210083800      10.319550730300       7.226843184500
       264    2      -17.916731035700      -5.812241793700       7.082746639700
       265    1      -17.444952309500      -6.588261712100       7.460848800500
       266    1      -17.976894564200      -6.049890002600       6.130225689500
       267    2       -4.885110322800      10.672609710400       2.581297200500
       268    1       -4.602509665700      11.240826490700       3.326775722900
       269    1       -4.190378146100      10.870598166600       1.898929146000
       270    2        4.301902561700       3.226829042900      -5.012729442300
       271    1        4.407829659800       2.281544002700      -5.281014336600
       272    1        3.757221081100       3.654458428000      -5.709917690600
       273    2       -6.806049396600      -5.666601752100      -3.857247463100
       274    1       -5.913923274200      -5.859421814000      -3.470785855300
       275    1       -7.381723664700      -5.441647698200      -3.070376623900
       276    2        1.280697677300       1.502612772200       7.233038693000
       277    1        0.457845083700       1.190180886600       6.812538865100
       278    1        1.957002920600       0.889670718200       6.885524054700
       279    2       -3.579907916300       1.503334149500      -0.282821102500
       280    1       -2.753261240300       1.516306098000      -0.848690112700
       281    1       -4.338146624400       1.400719287500      -0.884206338900
       282    2       -1.926576188000      -8.521977175200       9.751318173700
       283    1       -2.339594032900      -9.313519412500       9.330143423800
       284    1       -1.203694392600      -8.299288305100       9.130508100100
       285    2        3.721882586700       7.099167389700      -3.302964455000
       286    1        2.928513176500       6.649158622200      -2.946599793900
       287    1        3.415899100100       7.360493417200      -4.198044026600
       288    2       -0.926620215200       0.294013589100       5.168652845800
       289    1       -1.743630106300      -0.249321690900       5.173440468200
       290    1       -1.020615363500       0.816234140900       4.345157975800
       291    2        0.648803115400      -5.585410827100      -0.507742145400
       292    1        0.643738453100      -4.671155293100      -0.849011647900
       293    1        0.311182200500      -5.522187605100       0.411520795000
       294    2       -8.815157254900      -3.799250743000      -6.308273191300
       295    1       -8.975026937100      -2.814864236300      -6.281279098100
       296    1       -7.856928631500      -3.849004777600      -6.488361298600
       297    2       -2.728647762300       1.858081895600      -4.004976102900
       298    1       -2.461206558600       1.163409067000      -4.637316696900
       299    1       -2.088737031600       1.784314835700      -3.254727873100
       300    2       -3.790292874900      -3.293135885400       9.746460208400
       301    1       -2.945868174700      -3.325734677400       9.236166212800
       302    1       -3.628105873400      -2.592759209800      10.400846881100
       303    2        7.439651050900      -1.949982901100      -3.284021297600
       304    1        7.145680404700      -1.011584794900      -3.176763859700
       305    1        7.077159673200      -2.454127332200      -2.512273159100
       306    2        1.069440150800      -3.519580387400       5.662997708400
       307    1        0.558996010200      -4.046759069800       6.304937254200
       308    1        1.579793570500      -4.208443590000       5.170752518400
       309    2        2.357842563800      -3.727975020700       2.152301977600
       310    1        2.797846421700      -3.774579173200       1.285306506300
       311    1        1.714382192600      -3.004159485600       2.021035753500
       312    2        8.807137554300      -5.383804768900      -1.714711624600
       313    1        9.246023134900      -5.575100374200      -0.863683539300
       314    1        8.125349240800      -4.696185860700      -1.507726324200
       315    2      -10.449506373800       0.782874423500      -3.368090435100
       316    1       -9.636756080100       0.978690390900      -3.900365752200
       317    1      -11.174624548400       0.740090648400      -4.032940871600
       318    2        2.426128958000      -1.360922687300       7.024402899700
       319    1        2.084192957600      -2.142281352300       6.536266639500
       320    1        3.288011968800      -1.642936982700       7.416038565200
       321    2       -7.511404403900       5.230961702700      -0.507200132000
       322    1       -8.480779510400       5.059850851400      -0.625251018100
       323    1       -7.038767544700       4.960852389000      -1.317947261000
       324    2       -0.652441457600      -5.585193840300       2.073471784600
       325    1       -0.583891757300      -4.667453753400       2.442687383100
       326    1       -1.514296992100      -5.580363321700       1.582414320800
       327    2       -6.513831060700      -3.011281845000      -8.394010077100
       328    1       -6.702764323000      -3.551879218400      -9.192554288400
       329    1       -5.562211948800      -3.148072201500      -8.192267484400
       330    2       -5.583223360000       1.079135631400       5.805184593600
       331    1       -5.387146300500       1.584395857900       6.641081544700
       332    1       -4.877108832300       1.385513767100       5.177473452100
       333    2       -7.385342280600      -3.004262670700       0.216075840100
       334    1       -8.283614119900      -2.730509318400       0.497378059500
       335    1       -7.322816151300      -2.733716724500      -0.736223703600
       336    2        3.152871429600       5.017488798500      10.243773325500
       337    1        2.751929123300       4.839756952700       9.371085775800
       338    1        3.949311724800       5.564677671200      10.072997212200
       339    2        1.363715430000       3.794150723500      -0.994912462500
       340    1        1.060479030000       2.924788335500      -0.637347715300
       341    1        1.761231855200       4.272426618400      -0.246615905100
       342    2       -0.575759142100      -7.029745455500       4.369545708700
       343    1       -0.711087504100      -6.505102721500       3.531978580300
       344    1       -1.397887942500      -7.574696982500       4.447135683200
       345    2       -4.951902818900       0.290076779300      -3.153888163000
       346    1       -4.550334543900      -0.582585228700      -2.976448089800
       347    1       -4.208840036000       0.871551185200      -3.448798049400
       348    2       -9.315417034800      -1.137897866700      10.820448647300
       349    1       -8.812052504900      -0.483396950900      11.353210793200
       350    1      -10.246565975300      -0.908776569300      10.973952857900
       351    2       -5.880028908200       7.891419688200       3.159437396700
       352    1       -6.048645296700       7.769097680400       2.197936664400
       353    1       -5.577565137300       8.819007975300       3.205729593500
       354    2       -2.156905396300       4.440679937400      -1.645023949100
       355    1       -2.204303056800       4.614358895900      -0.684844942200
       356    1       -1.694933448200       3.572527141900      -1.681550910700
       357    2       -1.790210067800       6.438547062900     -11.398087176400
       358    1       -0.814399823600       6.601421149600     -11.437706397900
       359    1       -2.202903196400       7.186554220600     -11.912046133400
       360    2        1.067320737100       7.881899021500       3.153299544800
       361    1        0.569849545500       8.683423451800       3.423605188900
       362    1        1.866230679400       8.203461761900       2.652178556000
       363    2       -9.810376209100       2.005697717800      -0.930072083000
       364    1      -10.168822338100       1.644374142700      -1.777769561500
       365    1       -8.848377214400       1.787719327200      -0.955039444200
       366    2        3.875207772300      -4.868664160600      -3.579019869000
       367    1        4.638504474400      -4.415528672900      -3.999192635800
       368    1        4.186030279500      -5.755171597700      -3.315034030800
       369    2        2.868234935200      -1.431177641800      -3.009798689000