 # REMARK   1 File created by GaussView 6.0.16
  
         518  atoms
           4  atom types
 
      0.000000000000      17.200000000000  xlo xhi
      0.000000000000      17.200000000000  ylo yhi
      0.000000000000      17.200000000000  zlo zhi
 
Masses
 
            1   1.00800000              # H
            2   15.99900000             # O
            3   24.30500000             # Mg
            4   30.97376200             # P
 
Atoms # atomic
 
         1    4       -0.062000000000       0.498000000000      -0.936000000000
         2    2       -0.849000000000      -0.825000000000      -0.340000000000
         3    2        0.924000000000       0.949000000000       0.205000000000
         4    2       -1.193000000000       1.551000000000      -1.144000000000
         5    2        0.710000000000       0.262000000000      -2.318000000000
         6    3        1.432000000000       0.000000000000       1.996000000000
         7    4       -0.025000000000      -2.231000000000      -0.027000000000
         8    2        0.718000000000      -1.806000000000       1.224000000000
         9    2        0.843000000000      -2.530000000000      -1.314000000000
        10    2       -1.047000000000      -3.346000000000       0.209000000000
        11    3        0.817000000000      -1.636000000000      -3.203000000000
        12    2       -4.338000000000       4.787000000000      -6.076000000000
        13    1       -4.538000000000       5.587000000000      -6.621000000000
        14    1       -5.095000000000       4.199000000000      -6.372000000000
        15    2       -4.815000000000      -0.485000000000     -13.300000000000
        16    1       -4.337000000000       0.157000000000     -13.890000000000
        17    1       -4.139000000000      -1.244000000000     -13.230000000000
        18    2        7.108000000000       8.858000000000       4.613000000000
        19    1        7.910000000000       8.948000000000       5.122000000000
        20    1        7.118000000000       7.993000000000       4.132000000000
        21    2       -1.435000000000      -3.008000000000       7.783000000000
        22    1       -1.002000000000      -3.563000000000       7.026000000000
        23    1       -0.965000000000      -3.251000000000       8.610000000000
        24    2        3.492000000000       1.094000000000      -1.124000000000
        25    1        3.323000000000       0.915000000000      -0.175000000000
        26    1        3.653000000000       2.014000000000      -1.187000000000
        27    2        5.825000000000      -9.409000000000       1.377000000000
        28    1        5.014000000000      -9.093000000000       0.902000000000
        29    1        5.541000000000      -9.978000000000       2.144000000000
        30    2       -7.895000000000      -1.842000000000       6.204000000000
        31    1       -8.814000000000      -1.740000000000       6.448000000000
        32    1       -7.937000000000      -1.773000000000       5.198000000000
        33    2        6.057000000000      12.422000000000       6.672000000000
        34    1        5.507000000000      12.918000000000       7.297000000000
        35    1        6.612000000000      11.863000000000       7.298000000000
        36    2       -5.199000000000      -9.845000000000       5.826000000000
        37    1       -4.299000000000     -10.224000000000       5.965000000000
        38    1       -5.843000000000      -9.987000000000       6.587000000000
        39    2       -9.959000000000      -4.557000000000      -6.466000000000
        40    1      -10.413000000000      -3.692000000000      -6.803000000000
        41    1       -9.758000000000      -4.295000000000      -5.526000000000
        42    2       -4.712000000000      -7.536000000000      -7.562000000000
        43    1       -5.269000000000      -6.973000000000      -8.176000000000
        44    1       -3.972000000000      -6.972000000000      -7.248000000000
        45    2       -2.390000000000      -4.095000000000      -2.210000000000
        46    1       -1.740000000000      -4.674000000000      -2.654000000000
        47    1       -1.994000000000      -3.686000000000      -1.354000000000
        48    2       -2.127000000000      -8.024000000000       2.933000000000
        49    1       -2.161000000000      -8.920000000000       2.489000000000
        50    1       -2.918000000000      -7.526000000000       2.676000000000
        51    2        1.997000000000       2.430000000000       9.920000000000
        52    1        1.174000000000       2.564000000000      10.482000000000
        53    1        2.393000000000       1.652000000000      10.358000000000
        54    2       -6.076000000000      -5.667000000000       7.931000000000
        55    1       -6.013000000000      -4.706000000000       8.080000000000
        56    1       -7.021000000000      -5.777000000000       7.901000000000
        57    2        5.046000000000       2.213000000000      -4.792000000000
        58    1        4.906000000000       2.894000000000      -5.460000000000
        59    1        4.666000000000       1.424000000000      -5.202000000000
        60    2        0.201000000000       6.156000000000       1.079000000000
        61    1        0.165000000000       5.381000000000       0.465000000000
        62    1       -0.655000000000       6.558000000000       0.889000000000
        63    2        5.539000000000       2.389000000000       8.607000000000
        64    1        5.049000000000       2.984000000000       9.249000000000
        65    1        6.441000000000       2.173000000000       8.902000000000
        66    2        4.598000000000      -0.318000000000       8.996000000000
        67    1        4.601000000000       0.645000000000       8.767000000000
        68    1        5.455000000000      -0.537000000000       9.472000000000
        69    2       -3.532000000000      -6.388000000000      -0.741000000000
        70    1       -3.248000000000      -5.637000000000      -1.292000000000
        71    1       -2.842000000000      -7.028000000000      -0.895000000000
        72    2        5.077000000000      -7.646000000000      -3.167000000000
        73    1        4.775000000000      -7.099000000000      -2.406000000000
        74    1        4.672000000000      -8.471000000000      -3.252000000000
        75    2       -6.804000000000      -7.019000000000       1.476000000000
        76    1       -6.998000000000      -7.770000000000       0.909000000000
        77    1       -5.826000000000      -6.786000000000       1.556000000000
        78    2        5.349000000000     -11.352000000000      -3.343000000000
        79    1        4.612000000000     -10.782000000000      -3.549000000000
        80    1        5.905000000000     -10.932000000000      -2.624000000000
        81    2       -4.642000000000       3.339000000000       7.656000000000
        82    1       -5.350000000000       3.661000000000       8.175000000000
        83    1       -3.754000000000       3.721000000000       8.018000000000
        84    2       -1.283000000000       1.519000000000       8.043000000000
        85    1       -2.203000000000       1.297000000000       7.810000000000
        86    1       -1.164000000000       2.490000000000       7.826000000000
        87    2       -4.416000000000      -0.506000000000      -6.892000000000
        88    1       -5.172000000000       0.060000000000      -6.629000000000
        89    1       -4.162000000000      -0.141000000000      -7.803000000000
        90    2       -2.059000000000       0.875000000000      -6.231000000000
        91    1       -2.840000000000       0.210000000000      -6.118000000000
        92    1       -2.255000000000       1.324000000000      -7.069000000000
        93    2       -2.407000000000      -9.561000000000      -3.688000000000
        94    1       -3.170000000000      -8.942000000000      -3.919000000000
        95    1       -2.778000000000     -10.438000000000      -3.533000000000
        96    2       -4.562000000000       6.264000000000      -0.329000000000
        97    1       -5.205000000000       5.571000000000      -0.007000000000
        98    1       -4.562000000000       6.195000000000      -1.325000000000
        99    2       -8.728000000000       2.121000000000       5.642000000000
       100    1       -9.510000000000       1.943000000000       5.085000000000
       101    1       -7.988000000000       1.456000000000       5.478000000000
       102    2       -1.757000000000       1.481000000000       4.968000000000
       103    1       -1.250000000000       2.221000000000       5.246000000000
       104    1       -2.696000000000       1.844000000000       5.017000000000
       105    2        6.805000000000     -10.637000000000      -1.224000000000
       106    1        6.507000000000     -10.433000000000      -0.286000000000
       107    1        7.611000000000     -11.291000000000      -1.262000000000
       108    2        2.880000000000       6.691000000000       8.746000000000
       109    1        3.577000000000       6.071000000000       8.401000000000
       110    1        2.387000000000       6.293000000000       9.447000000000
       111    2      -12.343000000000       5.310000000000       7.163000000000
       112    1      -12.238000000000       6.253000000000       6.832000000000
       113    1      -12.832000000000       4.796000000000       6.476000000000
       114    2        0.255000000000      -3.639000000000      -7.199000000000
       115    1        0.627000000000      -3.093000000000      -6.501000000000
       116    1        0.999000000000      -4.141000000000      -7.559000000000
       117    2       -1.535000000000      -9.026000000000      10.690000000000
       118    1       -1.734000000000      -9.390000000000       9.812000000000
       119    1       -1.767000000000      -9.538000000000      11.485000000000
       120    2       -1.257000000000      -2.169000000000      -3.399000000000
       121    1       -2.021000000000      -1.527000000000      -3.305000000000
       122    1       -1.565000000000      -3.060000000000      -2.945000000000
       123    2       -1.536000000000       4.413000000000       8.370000000000
       124    1       -1.567000000000       4.118000000000       9.320000000000
       125    1       -1.743000000000       5.448000000000       8.478000000000
       126    2        7.545000000000      -5.523000000000      -1.508000000000
       127    1        8.251000000000      -5.482000000000      -0.832000000000
       128    1        7.745000000000      -6.380000000000      -1.984000000000
       129    2        4.099000000000      -6.619000000000       6.107000000000
       130    1        4.997000000000      -6.246000000000       6.284000000000
       131    1        3.631000000000      -6.321000000000       6.946000000000
       132    2       -2.835000000000       5.831000000000       5.586000000000
       133    1       -2.208000000000       6.611000000000       5.494000000000
       134    1       -3.191000000000       5.772000000000       4.639000000000
       135    2       -0.519000000000       3.965000000000       5.496000000000
       136    1       -1.405000000000       4.319000000000       5.829000000000
       137    1        0.016000000000       3.932000000000       6.296000000000
       138    2        3.815000000000       4.450000000000       1.486000000000
       139    1        3.512000000000       5.356000000000       1.694000000000
       140    1        4.760000000000       4.343000000000       1.355000000000
       141    2       -9.786000000000      -0.484000000000       1.041000000000
       142    1       -9.583000000000       0.270000000000       0.468000000000
       143    1       -8.963000000000      -0.520000000000       1.576000000000
       144    2        4.284000000000       3.115000000000       5.621000000000
       145    1        3.485000000000       2.563000000000       5.734000000000
       146    1        4.816000000000       2.879000000000       6.421000000000
       147    2      -11.898000000000      -3.404000000000      -1.523000000000
       148    1      -11.987000000000      -4.371000000000      -1.507000000000
       149    1      -10.983000000000      -3.014000000000      -1.577000000000
       150    2        3.312000000000       0.275000000000      -5.750000000000
       151    1        2.876000000000      -0.102000000000      -4.979000000000
       152    1        3.714000000000      -0.308000000000      -6.389000000000
       153    2       -6.033000000000      -6.889000000000      -1.989000000000
       154    1       -5.712000000000      -7.308000000000      -2.849000000000
       155    1       -5.208000000000      -6.801000000000      -1.504000000000
       156    2        5.433000000000       7.941000000000       6.528000000000
       157    1        4.722000000000       8.583000000000       6.440000000000
       158    1        5.887000000000       8.136000000000       5.698000000000
       159    2        9.867000000000      15.965000000000       3.461000000000
       160    1        9.933000000000      15.128000000000       2.914000000000
       161    1       10.868000000000      16.245000000000       3.560000000000
       162    2        4.367000000000       3.409000000000      -2.498000000000
       163    1        4.710000000000       2.995000000000      -3.333000000000
       164    1        4.787000000000       4.300000000000      -2.418000000000
       165    2        0.712000000000      -3.273000000000       3.764000000000
       166    1        1.577000000000      -3.641000000000       3.462000000000
       167    1        0.378000000000      -2.733000000000       2.980000000000
       168    2        5.219000000000      -0.121000000000       2.677000000000
       169    1        6.046000000000      -0.080000000000       2.149000000000
       170    1        5.066000000000      -1.056000000000       2.973000000000
       171    2       -2.525000000000      -5.401000000000      -7.002000000000
       172    1       -1.571000000000      -5.575000000000      -6.836000000000
       173    1       -2.513000000000      -4.471000000000      -7.303000000000
       174    2       -7.239000000000       0.784000000000      -2.005000000000
       175    1       -7.241000000000       0.076000000000      -2.722000000000
       176    1       -6.448000000000       1.360000000000      -2.132000000000
       177    2       -7.184000000000       9.869000000000       4.758000000000
       178    1       -7.310000000000       9.852000000000       3.785000000000
       179    1       -7.133000000000      10.772000000000       5.000000000000
       180    2        8.162000000000       3.564000000000      -6.242000000000
       181    1        7.336000000000       4.103000000000      -6.270000000000
       182    1        7.855000000000       2.709000000000      -5.892000000000
       183    2        4.384000000000      -3.255000000000       8.522000000000
       184    1        4.111000000000      -2.382000000000       8.272000000000
       185    1        4.783000000000      -2.999000000000       9.380000000000
       186    2       -1.345000000000       8.886000000000      -1.474000000000
       187    1       -1.562000000000       8.468000000000      -2.295000000000
       188    1       -0.345000000000       8.796000000000      -1.434000000000
       189    2      -11.223000000000       5.584000000000      -5.875000000000
       190    1      -12.099000000000       5.303000000000      -6.190000000000
       191    1      -11.182000000000       5.496000000000      -4.902000000000
       192    2       -6.801000000000       3.297000000000       3.553000000000
       193    1       -5.845000000000       3.144000000000       3.750000000000
       194    1       -7.262000000000       3.187000000000       4.372000000000
       195    2       -7.502000000000       6.795000000000       7.347000000000
       196    1       -8.003000000000       6.177000000000       6.822000000000
       197    1       -8.270000000000       7.290000000000       7.726000000000
       198    2        4.875000000000      -5.746000000000      11.996000000000
       199    1        5.177000000000      -6.462000000000      12.603000000000
       200    1        5.580000000000      -5.523000000000      11.350000000000
       201    2       -6.369000000000      -3.862000000000      -1.522000000000
       202    1       -6.816000000000      -3.869000000000      -0.611000000000
       203    1       -6.512000000000      -4.798000000000      -1.872000000000
       204    2        1.815000000000       4.413000000000      -2.998000000000
       205    1        1.414000000000       4.660000000000      -2.167000000000
       206    1        2.740000000000       4.086000000000      -2.676000000000
       207    2       -8.912000000000      -4.520000000000       3.250000000000
       208    1       -9.573000000000      -3.838000000000       3.515000000000
       209    1       -9.426000000000      -5.337000000000       3.057000000000
       210    2       -6.409000000000      -1.582000000000      -3.695000000000
       211    1       -6.629000000000      -2.303000000000      -3.062000000000
       212    1       -6.387000000000      -1.937000000000      -4.569000000000
       213    2        6.388000000000       2.020000000000       3.990000000000
       214    1        5.805000000000       1.231000000000       3.813000000000
       215    1        5.797000000000       2.450000000000       4.613000000000
       216    2        9.971000000000       5.300000000000       1.516000000000
       217    1       10.346000000000       4.640000000000       2.190000000000
       218    1       10.170000000000       6.181000000000       1.966000000000
       219    2        1.285000000000       7.643000000000       6.716000000000
       220    1        1.979000000000       7.202000000000       7.270000000000
       221    1        1.742000000000       7.778000000000       5.835000000000
       222    2        2.206000000000      -8.199000000000      -5.374000000000
       223    1        1.282000000000      -7.826000000000      -5.738000000000
       224    1        2.885000000000      -7.888000000000      -6.010000000000
       225    2       11.199000000000       3.418000000000      -0.384000000000
       226    1       11.809000000000       2.776000000000      -0.715000000000
       227    1       10.639000000000       3.078000000000       0.316000000000
       228    2       -6.450000000000       1.250000000000      -5.962000000000
       229    1       -5.991000000000       1.439000000000      -5.059000000000
       230    1       -7.304000000000       0.923000000000      -5.740000000000
       231    2      -11.636000000000      -2.235000000000      -6.413000000000
       232    1      -11.853000000000      -2.244000000000      -5.426000000000
       233    1      -10.895000000000      -1.642000000000      -6.617000000000
       234    2       -4.141000000000      -2.883000000000       4.087000000000
       235    1       -3.307000000000      -3.429000000000       3.995000000000
       236    1       -4.917000000000      -3.424000000000       3.918000000000
       237    2       -1.309000000000       4.218000000000      -6.119000000000
       238    1       -0.817000000000       3.702000000000      -5.437000000000
       239    1       -2.236000000000       4.365000000000      -5.808000000000
       240    2       -2.420000000000       7.274000000000       0.685000000000
       241    1       -2.165000000000       8.007000000000       0.017000000000
       242    1       -3.289000000000       6.865000000000       0.311000000000
       243    2        1.560000000000      -8.441000000000      -0.925000000000
       244    1        1.879000000000      -9.265000000000      -0.570000000000
       245    1        2.131000000000      -8.263000000000      -1.720000000000
       246    2        6.674000000000      -2.690000000000       4.419000000000
       247    1        6.523000000000      -3.296000000000       5.140000000000
       248    1        5.704000000000      -2.479000000000       4.096000000000
       249    2        2.577000000000       1.568000000000       2.919000000000
       250    1        2.204000000000       2.424000000000       3.242000000000
       251    1        3.549000000000       1.788000000000       2.822000000000
       252    2       13.194000000000       5.438000000000       3.070000000000
       253    1       12.474000000000       6.155000000000       3.006000000000
       254    1       13.437000000000       5.222000000000       2.150000000000
       255    2        5.733000000000       0.128000000000      -2.040000000000
       256    1        6.226000000000       1.012000000000      -2.093000000000
       257    1        4.808000000000       0.422000000000      -1.779000000000
       258    2        0.596000000000       2.785000000000      -4.566000000000
       259    1        1.082000000000       3.437000000000      -3.963000000000
       260    1        0.349000000000       2.052000000000      -3.943000000000
       261    2       -1.929000000000      10.655000000000       6.062000000000
       262    1       -1.988000000000      10.847000000000       7.008000000000
       263    1       -2.917000000000      10.452000000000       5.866000000000
       264    2      -16.623000000000      -4.702000000000       5.702000000000
       265    1      -16.849000000000      -5.508000000000       6.220000000000
       266    1      -16.702000000000      -4.974000000000       4.788000000000
       267    2       -4.350000000000      11.097000000000       2.703000000000
       268    1       -4.632000000000      11.091000000000       3.623000000000
       269    1       -3.667000000000      11.786000000000       2.756000000000
       270    2        3.455000000000       4.439000000000      -6.210000000000
       271    1        2.879000000000       3.858000000000      -6.799000000000
       272    1        2.831000000000       4.886000000000      -5.642000000000
       273    2       -7.190000000000      -5.348000000000      -4.959000000000
       274    1       -6.208000000000      -5.340000000000      -4.883000000000
       275    1       -7.607000000000      -4.797000000000      -4.223000000000
       276    2        1.761000000000       2.644000000000       7.059000000000
       277    1        1.300000000000       1.847000000000       7.341000000000
       278    1        2.116000000000       3.013000000000       7.882000000000
       279    2       -3.996000000000       0.850000000000      -0.789000000000
       280    1       -3.550000000000      -0.017000000000      -0.645000000000
       281    1       -3.188000000000       1.358000000000      -0.958000000000
       282    2       -0.078000000000      -6.956000000000      10.755000000000
       283    1       -0.767000000000      -7.729000000000      10.810000000000
       284    1        0.207000000000      -6.972000000000       9.836000000000
       285    2        3.056000000000       7.531000000000      -3.226000000000
       286    1        2.356000000000       6.818000000000      -3.237000000000
       287    1        2.757000000000       8.246000000000      -3.901000000000
       288    2        0.405000000000       0.027000000000       6.135000000000
       289    1        0.328000000000      -0.984000000000       6.351000000000
       290    1       -0.526000000000       0.373000000000       6.270000000000
       291    2        0.723000000000      -4.792000000000      -1.663000000000
       292    1        0.439000000000      -3.845000000000      -1.561000000000
       293    1        0.209000000000      -5.380000000000      -1.114000000000
       294    2       -9.177000000000      -0.842000000000      -7.395000000000
       295    1       -9.077000000000      -0.132000000000      -8.075000000000
       296    1       -8.286000000000      -1.281000000000      -7.249000000000
       297    2       -2.665000000000       2.564000000000      -3.765000000000
       298    1       -2.394000000000       2.057000000000      -4.569000000000
       299    1       -2.072000000000       2.310000000000      -3.027000000000
       300    2       -2.848000000000      -2.650000000000      10.914000000000
       301    1       -3.403000000000      -1.817000000000      10.750000000000
       302    1       -2.111000000000      -2.331000000000      11.444000000000
       303    2        4.980000000000      -1.809000000000      -3.828000000000
       304    1        5.322000000000      -1.130000000000      -3.223000000000
       305    1        4.927000000000      -2.663000000000      -3.237000000000
       306    2        2.265000000000      -2.279000000000       6.627000000000
       307    1        1.682000000000      -1.826000000000       7.366000000000
       308    1        1.822000000000      -3.060000000000       6.417000000000
       309    2        2.042000000000      -4.836000000000       1.127000000000
       310    1        2.009000000000      -4.031000000000       0.529000000000
       311    1        1.312000000000      -5.352000000000       0.715000000000
       312    2        8.124000000000      -3.934000000000      -3.662000000000
       313    1        7.908000000000      -4.452000000000      -2.882000000000
       314    1        8.046000000000      -2.970000000000      -3.241000000000
       315    2       -9.003000000000       1.199000000000      -4.947000000000
       316    1       -9.428000000000       1.160000000000      -4.082000000000
       317    1       -9.150000000000       0.290000000000      -5.370000000000
       318    2        3.717000000000       0.141000000000       5.378000000000
       319    1        3.182000000000       0.197000000000       4.543000000000
       320    1        3.173000000000      -0.326000000000       6.000000000000
       321    2       -7.512000000000       4.804000000000      -4.407000000000
       322    1       -8.144000000000       4.399000000000      -5.017000000000
       323    1       -7.308000000000       5.696000000000      -4.804000000000
       324    2       -0.835000000000      -5.591000000000       0.861000000000
       325    1       -1.022000000000      -4.691000000000       0.546000000000
       326    1       -1.712000000000      -6.018000000000       0.837000000000
       327    2       -6.156000000000      -2.906000000000      -9.023000000000
       328    1       -6.745000000000      -2.587000000000      -9.723000000000
       329    1       -5.222000000000      -2.729000000000      -9.261000000000
       330    2       -4.171000000000       2.910000000000       4.897000000000
       331    1       -4.473000000000       3.103000000000       5.842000000000
       332    1       -4.004000000000       3.843000000000       4.493000000000
       333    2       -6.932000000000      -0.766000000000       0.204000000000
       334    1       -6.016000000000      -1.027000000000       0.479000000000
       335    1       -6.929000000000      -0.188000000000      -0.547000000000
       336    2        4.173000000000       9.577000000000       9.475000000000
       337    1        3.661000000000       8.820000000000       9.174000000000
       338    1        4.834000000000       9.224000000000      10.069000000000
       339    2        1.116000000000       3.907000000000      -0.049000000000
       340    1        0.878000000000       2.983000000000       0.029000000000
       341    1        1.960000000000       3.881000000000       0.374000000000
       342    2        0.319000000000      -6.515000000000       3.380000000000
       343    1        0.242000000000      -6.105000000000       2.469000000000
       344    1       -0.482000000000      -7.026000000000       3.388000000000
       345    2       -3.798000000000      -0.407000000000      -3.640000000000
       346    1       -4.623000000000      -0.983000000000      -3.561000000000
       347    1       -3.876000000000       0.318000000000      -3.006000000000
       348    2       -9.099000000000       1.650000000000       8.428000000000
       349    1       -8.475000000000       2.224000000000       8.834000000000
       350    1       -8.986000000000       1.558000000000       7.504000000000
       351    2       -5.895000000000       7.436000000000       3.244000000000
       352    1       -5.892000000000       8.123000000000       2.563000000000
       353    1       -5.988000000000       7.852000000000       4.144000000000
       354    2       -2.379000000000       3.429000000000       0.592000000000
       355    1       -2.685000000000       4.252000000000       0.223000000000
       356    1       -1.887000000000       2.999000000000      -0.129000000000
       357    2       -1.299000000000       8.026000000000     -10.992000000000
       358    1       -0.371000000000       7.898000000000     -10.817000000000
       359    1       -1.485000000000       9.003000000000     -11.001000000000
       360    2        2.253000000000       8.441000000000       4.434000000000
       361    1        1.777000000000       9.228000000000       4.020000000000
       362    1        3.120000000000       8.831000000000       4.577000000000
       363    2       -9.654000000000       2.165000000000      -2.087000000000
       364    1       -8.824000000000       1.780000000000      -1.674000000000
       365    1       -9.673000000000       3.091000000000      -1.713000000000
       366    2        3.165000000000      -4.394000000000      -3.614000000000
       367    1        3.309000000000      -4.706000000000      -2.694000000000
       368    1        3.905000000000      -4.979000000000      -4.084000000000
       369    2        2.915000000000      -1.173000000000      -3.120000000000