 #  generated by VMD
  
         518  atoms
           1  atom types
 
      0.000000000000      17.200000000000  xlo xhi
      0.000000000000      17.200000000000  ylo yhi
      0.000000000000      17.200000000000  zlo zhi
 
Masses
 
            1   1.00800000              # H
 
Atoms # atomic
 
         1    1       -0.135436000000       0.500744000000      -0.868215000000
         2    1       -0.891171000000      -0.789539000000      -0.425950000000
         3    1        1.020104000000       0.863703000000       0.074626000000
         4    1       -1.156268000000       1.608510000000      -0.980407000000
         5    1        0.566360000000       0.242271000000      -2.268241000000
         6    1        1.305886000000       0.038108000000       1.844647000000
         7    1        0.129045000000      -2.490523000000       0.042467000000
         8    1        0.709311000000      -1.780329000000       1.295200000000
         9    1        0.984476000000      -2.450905000000      -1.187498000000
        10    1       -1.154724000000      -3.217296000000       0.096181000000
        11    1        1.313997000000      -1.500039000000      -2.917741000000
        12    1       -6.079602000000      -8.574269000000       3.145937000000
        13    1       -5.514959000000      -8.035608000000       3.682922000000
        14    1       -5.397803000000      -9.101997000000       2.787232000000
        15    1        4.137835000000      -3.141176000000       5.460833000000
        16    1        3.778628000000      -3.320613000000       4.553054000000
        17    1        4.559092000000      -2.300696000000       5.358834000000
        18    1        6.234900000000       1.365969000000       2.484621000000
        19    1        5.973669000000       1.530258000000       1.541067000000
        20    1        5.356502000000       1.316458000000       2.989973000000
        21    1        8.166971000000       3.263980000000       3.100515000000
        22    1        8.466516000000       3.148531000000       3.994495000000
        23    1        7.450435000000       2.579699000000       2.973576000000
        24    1        2.529974000000       3.197959000000      -5.101374000000
        25    1        1.636171000000       2.841413000000      -4.921911000000
        26    1        2.887436000000       3.311147000000      -4.217990000000
        27    1        5.533507000000       6.289487000000      -1.323665000000
        28    1        6.325603000000       6.016580000000      -1.781567000000
        29    1        4.869609000000       6.196739000000      -1.998100000000
        30    1       10.613631000000      -2.500424000000       5.684352000000
        31    1       10.491468000000      -3.437451000000       5.671542000000
        32    1       10.525034000000      -2.125498000000       4.798509000000
        33    1        7.914360000000      -1.844225000000       6.481906000000
        34    1        7.403307000000      -2.616797000000       6.778484000000
        35    1        8.782234000000      -2.187176000000       6.594877000000
        36    1       -0.943604000000      11.290993000000       7.092373000000
        37    1       -1.448057000000      10.469252000000       7.079941000000
        38    1       -6.719519000000       4.157310000000      -6.425777000000
        39    1       -2.234413000000      -2.806161000000       5.550796000000
        40    1       -1.740626000000      -3.613140000000       5.650326000000
        41    1       -2.001513000000      -2.596766000000       4.624439000000
        42    1       -5.637081000000       1.106717000000      -3.121572000000
        43    1       -4.697013000000       1.067516000000      -2.931427000000
        44    1       -5.963058000000       0.659911000000      -2.244762000000
        45    1       -2.675776000000      -5.319477000000      -0.521880000000
        46    1       -2.094896000000      -5.974883000000      -0.853975000000
        47    1       -2.033497000000      -4.634867000000      -0.236461000000
        48    1        5.043119000000       2.802215000000       9.200032000000
        49    1        4.283125000000       2.306229000000       8.875913000000
        50    1       -0.019115000000      -5.134764000000      -4.678782000000
        51    1        8.046988000000       7.440136000000       4.237563000000
        52    1        8.301682000000       7.888376000000       3.454531000000
        53    1        7.452002000000       6.674537000000       4.020276000000
        54    1        3.595185000000      -5.413638000000       7.440626000000
        55    1        3.716655000000      -6.138257000000       6.802602000000
        56    1        3.538471000000      -4.640049000000       6.850183000000
        57    1        5.766682000000      -2.730427000000      -7.990927000000
        58    1        4.990915000000      -3.320596000000      -8.056303000000
        59    1        6.437136000000      -3.226366000000      -8.524920000000
        60    1       -1.614161000000     -10.228631000000       0.651624000000
        61    1       -2.274794000000      -9.587422000000       0.910483000000
        62    1       -2.713002000000       4.476978000000      -6.246798000000
        63    1       -2.766253000000       1.537022000000      -3.320166000000
        64    1       -2.322592000000       1.270446000000      -2.433164000000
        65    1       -2.437615000000       0.833458000000      -3.921217000000
        66    1        2.362218000000       5.441511000000       4.990160000000
        67    1        1.847148000000       6.162181000000       5.491847000000
        68    1        2.205053000000       5.598711000000       4.030960000000
        69    1       -3.649993000000      -8.670558000000       1.597349000000
        70    1       -4.360364000000      -8.342392000000       1.026719000000
        71    1       -3.196219000000      -7.783032000000       1.794854000000
        72    1        4.978863000000      -6.811941000000      -2.080255000000
        73    1        5.939707000000      -6.948487000000      -1.846407000000
        74    1        4.610146000000      -7.630311000000      -1.675892000000
        75    1       -0.810217000000      -5.338498000000       5.922489000000
        76    1       -0.121139000000      -5.697088000000       5.391993000000
        77    1       -0.301395000000      -5.347553000000       6.739229000000
        78    1        2.602026000000       3.980485000000      -7.550479000000
        79    1        2.182697000000       3.261851000000      -8.033667000000
        80    1        2.495449000000       3.890434000000      -6.572782000000
        81    1        0.169662000000      -0.077700000000      11.481428000000
        82    1       -0.245489000000       0.732071000000      11.178419000000
        83    1        1.053504000000      -0.010116000000      11.083161000000
        84    1        2.275842000000       8.216280000000       3.582818000000
        85    1        1.757592000000       7.466875000000       3.200171000000
        86    1        2.722660000000       7.960204000000       4.389469000000
        87    1        4.195292000000       9.574596000000       1.888780000000
        88    1        3.583035000000       9.152511000000       2.494427000000
        89    1        4.526995000000      -5.638258000000       8.668221000000
        90    1        0.362461000000       1.917178000000      -4.112778000000
        91    1        0.427635000000       1.325775000000      -3.261451000000
        92    1       -0.298662000000       1.413288000000      -4.648170000000
        93    1       -2.385188000000      -4.025410000000      10.770725000000
        94    1       -3.191385000000      -4.122006000000      11.248783000000
        95    1       -2.420527000000      -4.418970000000       9.889818000000
        96    1       -3.495303000000       4.106093000000      -4.115783000000
        97    1       -3.225495000000       3.188244000000      -3.790062000000
        98    1       -4.406614000000       4.213729000000      -4.286127000000
        99    1       -3.848981000000       4.430055000000       7.441760000000
       100    1       -4.028069000000       3.536962000000       7.203602000000
       101    1       -4.619702000000       4.965407000000       7.283921000000
       102    1       -0.429798000000       3.377809000000       3.623087000000
       103    1       -1.049733000000       2.675417000000       3.843400000000
       104    1       -0.709882000000       4.224790000000       3.961945000000
       105    1        1.137011000000       2.267979000000      -9.066336000000
       106    1        7.182205000000       8.896441000000       5.084842000000
       107    1        6.423676000000      10.146004000000       4.583738000000
       108    1        2.438513000000       5.364891000000       8.788031000000
       109    1        1.797961000000       5.348688000000       8.054550000000
       110    1       -3.607538000000      -2.412176000000      -4.918334000000
       111    1       10.255441000000       4.361508000000       1.630852000000
       112    1        9.988486000000       4.060067000000       0.724433000000
       113    1        9.590376000000       3.993669000000       2.250999000000
       114    1        2.990598000000       0.088690000000      10.460932000000
       115    1        3.283838000000      -0.730834000000       9.996620000000
       116    1       -2.184665000000      -7.268881000000      -3.178280000000
       117    1        3.843651000000      -7.340262000000      -4.628175000000
       118    1        4.132755000000      -6.989216000000      -3.749704000000
       119    1        3.853148000000      -8.294907000000      -4.549489000000
       120    1       -0.797314000000      -2.195342000000      -3.631240000000
       121    1       -1.086294000000      -3.018967000000      -4.048679000000
       122    1       -1.408392000000      -2.066698000000      -2.920412000000
       123    1       -8.227297000000       0.543384000000      -4.524542000000
       124    1       -2.666259000000       6.968320000000       9.794973000000
       125    1       -7.442597000000       0.783296000000      -4.023787000000
       126    1        6.354049000000      -3.166842000000      -1.717170000000
       127    1        6.811230000000      -3.670301000000      -1.038343000000
       128    1        6.352106000000      -3.835392000000      -2.457062000000
       129    1        6.211687000000       8.554320000000       0.537216000000
       130    1        5.471230000000       8.742427000000       1.163206000000
       131    1        5.784053000000       7.861271000000      -0.049876000000
       132    1       -1.429924000000       5.727075000000       4.853606000000
       133    1       -0.672759000000       6.116517000000       4.340377000000
       134    1       -1.080170000000       5.650943000000       5.789172000000
       135    1        3.682193000000      11.382589000000       5.323696000000
       136    1        3.919817000000      -4.172268000000      12.171606000000
       137    1       -1.251477000000     -10.864814000000      -0.950307000000
       138    1        9.711606000000       3.906808000000      -1.276615000000
       139    1       -5.631130000000       5.433556000000       3.779214000000
       140    1        9.385822000000       3.008502000000      -1.114802000000
       141    1        8.663554000000       1.580318000000      -0.398565000000
       142    1        8.001035000000       1.940177000000       0.212394000000
       143    1        8.214565000000       0.817826000000      -0.884270000000
       144    1        3.633063000000      -7.481705000000       5.699151000000
       145    1        4.475707000000      -7.468899000000       5.192880000000
       146    1        2.451697000000       7.092806000000      -1.508307000000
       147    1        3.840268000000      -2.216939000000      -0.267883000000
       148    1        2.873359000000      -2.270823000000      -0.367654000000
       149    1        4.189861000000      -2.077409000000      -1.143425000000
       150    1        6.392344000000       5.415806000000       3.248204000000
       151    1        5.893320000000       5.165548000000       4.026667000000
       152    1        7.113418000000       4.704933000000       3.070430000000
       153    1        6.546301000000      -8.335262000000       0.472841000000
       154    1        7.253723000000      -8.188228000000      -0.210826000000
       155    1        7.165116000000      -8.115864000000       1.201638000000
       156    1        9.986634000000      -2.132600000000       3.118354000000
       157    1       -5.698912000000       0.106754000000       7.997260000000
       158    1        9.201229000000      -1.573656000000       3.419366000000
       159    1       -3.025271000000       0.045045000000       8.459474000000
       160    1       -3.300052000000       0.805929000000       8.965222000000
       161    1       -2.333137000000      -0.423225000000       9.013632000000
       162    1        3.458414000000       0.707321000000      -6.081708000000
       163    1        3.441893000000       1.675862000000      -6.018330000000
       164    1        3.590958000000       0.500112000000      -7.040106000000
       165    1       -1.169812000000       3.026976000000       8.734291000000
       166    1       -1.532089000000       2.605857000000       9.544870000000
       167    1       -1.420451000000       2.412115000000       7.984093000000
       168    1        7.860110000000       1.572445000000      -3.811968000000
       169    1        7.215714000000       2.228138000000      -4.104973000000
       170    1        8.622199000000       2.021645000000      -3.416601000000
       171    1        2.557688000000      -1.592523000000       7.292947000000
       172    1        3.103198000000      -2.078019000000       6.658630000000
       173    1        1.603596000000      -1.391324000000       7.007174000000
       174    1       -3.947258000000       0.379106000000       2.206757000000
       175    1       -3.757988000000       1.018595000000       1.433196000000
       176    1       -4.903661000000       0.371975000000       2.366639000000
       177    1        7.781607000000       5.532694000000      -2.661129000000
       178    1        8.039423000000       6.436377000000      -2.805131000000
       179    1        8.444727000000       4.936269000000      -2.247108000000
       180    1       -1.845627000000       1.834891000000      11.213234000000
       181    1       -2.472545000000       1.212233000000      11.603197000000
       182    1       -1.757009000000       2.532038000000      11.905093000000
       183    1       -3.246078000000       5.182898000000       9.934443000000
       184    1       -2.476747000000       4.614397000000       9.959496000000
       185    1       -3.677652000000       4.852160000000       9.143350000000
       186    1        3.223154000000      -9.929826000000      -3.932867000000
       187    1        3.361338000000      -9.747434000000      -2.958321000000
       188    1        8.068512000000      -3.120648000000      10.479462000000
       189    1        3.833668000000       3.435919000000      -2.819436000000
       190    1        4.563183000000       3.755091000000      -3.371992000000
       191    1        3.339700000000       4.093164000000      -2.278858000000
       192    1       -1.170223000000       5.476301000000       7.574522000000
       193    1       -1.106589000000       4.739803000000       8.276005000000
       194    1       -2.127550000000       5.609332000000       7.551003000000
       195    1       -7.422282000000      -4.442423000000      -0.648564000000
       196    1       -8.219151000000      -3.996274000000      -0.480533000000
       197    1       -6.709910000000      -3.775285000000      -0.836465000000
       198    1        6.517616000000      -4.618566000000      -3.948379000000
       199    1        6.179546000000      -5.408441000000      -4.396745000000
       200    1        6.493214000000      -3.931693000000      -4.586505000000
       201    1       -2.804153000000      -6.144004000000       1.999428000000
       202    1       -3.588777000000      -5.848703000000       2.505356000000
       203    1       -3.025589000000      -5.784554000000       1.051571000000
       204    1       -0.286809000000       3.915711000000      -2.319227000000
       205    1       -0.563814000000       3.151041000000      -1.847680000000
       206    1       -0.272680000000       3.541095000000      -3.218572000000
       207    1        2.642794000000      -3.928958000000       3.105970000000
       208    1        2.331454000000      -4.663754000000       3.628644000000
       209    1        3.327267000000      -4.225962000000       2.482546000000
       210    1       -5.600303000000      -7.892652000000      -0.042327000000
       211    1       -6.454277000000      -8.339994000000      -0.040558000000
       212    1       -5.470718000000      -7.523104000000      -0.923750000000
       213    1        5.088298000000       4.535190000000       1.055631000000
       214    1        5.538074000000       4.756389000000       1.854214000000
       215    1        5.297731000000       5.226989000000       0.436985000000
       216    1       -5.177334000000       7.540833000000       2.306939000000
       217    1       -5.713984000000       6.748170000000       2.071718000000
       218    1       -4.708795000000       7.239241000000       3.086059000000
       219    1        3.905317000000      -2.506403000000       9.675263000000
       220    1        3.356243000000      -2.626837000000       8.878809000000
       221    1        3.804136000000      -3.324371000000      10.179430000000
       222    1        0.354117000000      -8.389235000000       0.446044000000
       223    1        1.072177000000      -8.479062000000       1.126313000000
       224    1       -0.339653000000      -8.950637000000       0.738026000000
       225    1       -6.192646000000      -0.182645000000      -0.874477000000
       226    1       -5.971455000000       0.530675000000      -0.177597000000
       227    1       -5.384115000000      -0.719798000000      -0.815002000000
       228    1       -5.821174000000      -1.980870000000      -3.937952000000
       229    1       -5.473531000000      -1.165043000000      -4.370358000000
       230    1       -5.443995000000      -1.777731000000      -3.096492000000
       231    1        9.561152000000       7.918007000000      -1.963701000000
       232    1       -6.194075000000       8.924958000000       2.905650000000
       233    1       -6.078726000000       9.319927000000       4.213206000000
       234    1        9.649593000000      -5.363689000000       2.193704000000
       235    1       -5.664759000000      -3.478443000000       7.743845000000
       236    1        9.261439000000      -5.136708000000       3.061859000000
       237    1       -4.926741000000      -3.838449000000      -1.578644000000
       238    1       -4.618346000000      -4.071659000000      -2.510730000000
       239    1       -4.261751000000      -4.226691000000      -1.025693000000
       240    1       -1.711752000000       6.248902000000      -3.103223000000
       241    1       -2.308131000000       5.541070000000      -3.467998000000
       242    1       -1.109049000000       5.646734000000      -2.684146000000
       243    1       -0.102082000000      -6.066847000000       1.898344000000
       244    1        0.033942000000      -6.821666000000       1.273208000000
       245    1       -1.043524000000      -6.107374000000       2.021515000000
       246    1        8.530952000000      -8.112133000000       2.761323000000
       247    1        9.009427000000      -7.240419000000       2.553020000000
       248    1        8.046267000000       6.583794000000      -5.222356000000
       249    1        1.919505000000       1.963746000000       2.687135000000
       250    1        1.216431000000       2.373290000000       3.206248000000
       251    1        2.639472000000       1.800762000000       3.422084000000
       252    1       -4.211236000000       4.268476000000      -0.856829000000
       253    1       -3.940939000000       4.500662000000      -1.740474000000
       254    1       -3.507849000000       4.696781000000      -0.285197000000
       255    1        3.310215000000       1.265984000000      -1.312974000000
       256    1        3.094005000000       1.857392000000      -2.070953000000
       257    1        2.400799000000       1.046805000000      -0.966332000000
       258    1       -1.442164000000       0.343601000000      -5.704403000000
       259    1       -1.691175000000       0.789011000000      -6.497675000000
       260    1       -1.912298000000      -0.464088000000      -5.788010000000
       261    1       -2.839185000000       9.460979000000       7.686982000000
       262    1       -2.969056000000       9.033340000000       8.518231000000
       263    1       -3.652999000000       9.290399000000       7.159635000000
       264    1        6.590215000000       4.308898000000       7.611943000000
       265    1        1.486942000000      -2.508273000000      -6.266073000000
       266    1        6.046656000000       3.810763000000       8.198244000000
       267    1        4.909030000000      -4.193902000000       1.287972000000
       268    1        4.525679000000      -3.591136000000       0.652859000000
       269    1        5.786664000000      -3.822283000000       1.672985000000
       270    1        6.007795000000      -0.918296000000       8.438797000000
       271    1        6.867422000000      -1.288537000000       8.482694000000
       272    1        5.312064000000      -1.420434000000       8.830024000000
       273    1        2.760180000000      -4.379571000000      11.164857000000
       274    1        1.828233000000      -4.165023000000      11.403612000000
       275    1        1.744176000000      10.113180000000       3.580088000000
       276    1        3.306422000000       1.313604000000       7.635759000000
       277    1        2.414300000000       1.506053000000       7.344703000000
       278    1        3.361309000000       0.338621000000       7.753160000000
       279    1       -4.056956000000      -2.719159000000       1.067627000000
       280    1       -3.229302000000      -2.591756000000       0.623944000000
       281    1       -4.334044000000      -1.826172000000       1.367183000000
       282    1        8.606403000000       0.782998000000       7.200891000000
       283    1        8.845261000000       0.665176000000       8.114284000000
       284    1        8.310963000000      -0.096416000000       6.869738000000
       285    1        6.786431000000      -4.338956000000      10.976594000000
       286    1        6.186695000000      -4.734928000000      10.336890000000
       287    1        6.148903000000      -4.057763000000      11.658216000000
       288    1        5.753353000000       2.011109000000      -0.033869000000
       289    1        5.203132000000       1.778696000000      -0.758292000000
       290    1        5.690994000000       2.971298000000       0.122899000000
       291    1        2.756041000000      -5.126388000000      -1.896211000000
       292    1        2.425716000000      -4.892594000000      -1.007075000000
       293    1        3.660126000000      -5.320363000000      -1.685909000000
       294    1        9.082804000000      -5.081291000000       5.149260000000
       295    1        8.200881000000      -5.062572000000       5.504732000000
       296    1        9.269682000000      -6.068750000000       5.346108000000
       297    1        0.391727000000       6.765177000000       2.286030000000
       298    1        0.650950000000       6.028681000000       1.713268000000
       299    1        0.101150000000       7.536020000000       1.768626000000
       300    1        4.998557000000       4.414324000000       5.412357000000
       301    1        5.425848000000       4.465450000000       6.308517000000
       302    1        4.123626000000       4.823683000000       5.500106000000
       303    1       -2.373265000000      -2.073948000000      14.286654000000
       304    1       -8.151525000000      -9.567676000000       0.746506000000
       305    1       -2.057422000000      -2.925495000000      14.004107000000
       306    1        3.727135000000       1.712991000000       4.611615000000
       307    1        4.089720000000       2.619290000000       4.535113000000
       308    1        3.524261000000       1.573597000000       5.593853000000
       309    1        1.138092000000      -4.134055000000       0.658690000000
       310    1        1.340701000000      -3.814769000000       1.608971000000
       311    1        0.472843000000      -4.835650000000       0.822011000000
       312    1        5.481125000000      -0.578599000000      -4.316062000000
       313    1        5.003332000000       0.030822000000      -4.928709000000
       314    1        6.099634000000      -1.220164000000      -4.758154000000
       315    1       -4.750005000000      -4.820193000000       3.565474000000
       316    1       -4.281142000000      -4.064992000000       3.200800000000
       317    1       -5.378678000000      -5.116739000000       2.849378000000
       318    1       -0.764336000000      -6.934374000000      -1.363486000000
       319    1       -0.350225000000      -6.824966000000      -2.230481000000
       320    1       -0.303747000000      -7.550578000000      -0.732924000000
       321    1        6.715540000000       1.463074000000      -9.129134000000
       322    1        5.812086000000       1.101259000000      -8.963150000000
       323    1       -9.040756000000       2.271018000000      -3.892395000000
       324    1        4.656231000000      -6.767701000000       1.247856000000
       325    1        4.751702000000      -5.821393000000       1.136948000000
       326    1        5.455472000000      -7.167534000000       0.840006000000
       327    1        8.718980000000       8.607637000000       1.814019000000
       328    1        7.811252000000       8.673022000000       1.391514000000
       329    1        9.062246000000       9.478955000000       2.072093000000
       330    1       -2.393260000000       5.586988000000       0.754087000000
       331    1       -1.584683000000       5.033985000000       0.585878000000
       332    1       -2.314919000000       6.344943000000       0.160192000000
       333    1       -1.585083000000      -2.489059000000       3.015041000000
       334    1       -0.691524000000      -2.485849000000       2.711569000000
       335    1       -2.062926000000      -2.720311000000       2.210603000000
       336    1       -3.497830000000       0.186731000000      12.667358000000
       337    1       -3.245359000000      -0.510105000000      13.282580000000
       338    1       -4.155792000000      -0.256347000000      12.134578000000
       339    1       -0.416523000000       3.700919000000       0.746380000000
       340    1       -0.316447000000       2.850049000000       0.279875000000
       341    1       -0.484838000000       3.413832000000       1.736296000000
       342    1        8.028487000000      -7.173630000000      -1.509920000000
       343    1       -7.682545000000      -5.903153000000       3.211881000000
       344    1        8.601518000000      -6.381740000000      -1.134968000000
       345    1       -3.466550000000      -1.336915000000      -1.863472000000
       346    1       -3.905773000000      -2.194916000000      -1.722401000000
       347    1       -2.797766000000      -1.105132000000      -1.208725000000
       348    1        4.418699000000      -0.184533000000      -8.422963000000
       349    1        3.800240000000      -0.249201000000      -9.165955000000
       350    1        5.097570000000      -0.872836000000      -8.509449000000
       351    1       10.809439000000      -4.348750000000      10.080124000000
       352    1        6.003357000000     -11.635654000000      -3.890052000000
       353    1       10.211037000000      -3.618794000000      10.175750000000
       354    1       -3.712397000000       1.669809000000      -0.195954000000
       355    1       -4.063551000000       2.513914000000      -0.158439000000
       356    1       -2.787663000000       1.609421000000      -0.563920000000
       357    1       -0.451265000000       8.907159000000       0.894432000000
       358    1       -0.373617000000      -6.315597000000       8.604068000000
       359    1        0.950583000000      -5.680119000000       8.494543000000
       360    1        2.023497000000       5.112168000000      -1.165197000000
       361    1        1.166992000000       4.796433000000      -1.431272000000
       362    1        2.065736000000       5.026098000000      -0.224612000000
       363    1       -7.808673000000       2.003557000000      -0.635942000000
       364    1        7.535992000000       0.141906000000      -6.383223000000
       365    1       -7.916115000000       2.384559000000       0.274037000000
       366    1        7.352764000000      -0.514495000000      -2.023818000000
       367    1        6.698695000000      -1.258218000000      -1.878903000000
       368    1        7.022013000000      -0.070808000000      -2.817364000000
       369    1        3.448592000000      -0.998741000000      -2.754791000000
       370    1        4.198054000000      -0.854073000000      -3.322843000000
       371    1        3.427356000000      -0.177518000000      -2.208009000000