# File generated with Atomsk by lv87908 on 2026-04-11 01:44:32

518  atoms
4  atom types

0.000000000000      17.200000000000  xlo xhi
0.000000000000      17.200000000000  ylo yhi
0.000000000000      17.200000000000  zlo zhi

Masses

1   1.00800000              # H
2   15.99900000             # O
3   24.30500000             # Mg
4   30.97376200             # P

Atoms # atomic

1    3       13.405354000000       9.570724000000      11.982624000000
2    2       10.493012000000       5.362000000000       4.913167000000
3    4       11.119035000000       6.659657000000       5.094887000000
4    2       11.723633000000       7.184667000000       6.406329000000
5    2       11.150582000000       7.792673000000       4.016484000000
6    2        9.136276000000       7.435433000000       5.728230000000
7    4        7.674188000000       6.739561000000       5.435033000000
8    2        7.933929000000       5.328496000000       6.148213000000
9    2        6.624113000000       7.574438000000       6.077396000000
10    2        7.419252000000       6.432442000000       3.988031000000
11    3        0.512849000000      12.801010000000       2.911980000000
12    2        0.608877000000       2.451210000000       1.469834000000
13    1        1.719152000000       4.144120000000      12.845078000000
14    1        0.294895000000       1.854424000000       0.724243000000
15    2       15.354708000000       9.707767000000       3.696521000000
16    1        1.674808000000      11.096346000000       1.383321000000
17    1       14.825040000000       4.441881000000       9.293796000000
18    2       16.261539000000       9.880136000000       9.446480000000
19    1        0.051904000000      10.066322000000       9.384602000000
20    1       15.848311000000      10.746204000000       9.268005000000
21    2        2.768943000000       4.160314000000       0.526791000000
22    1        3.139693000000       3.879731000000      16.843309000000
23    1        3.339373000000       3.844546000000       1.214570000000
24    2       12.565052000000       2.339537000000      16.509790000000
25    1       11.783786000000       1.871406000000      16.765877000000
26    1       12.580305000000       2.497427000000      15.583208000000
27    2       13.604302000000       9.546841000000      14.182655000000
28    1       13.041413000000      10.232235000000      14.500644000000
29    1       14.369543000000       9.409986000000      14.787414000000
30    2        3.610601000000      14.372750000000      10.805884000000
31    1        0.550421000000      13.106663000000      10.683043000000
32    1        3.642128000000      14.026572000000      11.703182000000
33    2        8.904048000000      15.252820000000      12.459153000000
34    1        9.316905000000      14.967585000000      13.383164000000
35    1        5.022596000000       5.263587000000      13.247366000000
36    2        0.426389000000       5.675566000000       3.262094000000
37    1       16.510010000000      10.086999000000      15.060261000000
38    1       16.028469000000       3.076816000000       4.346972000000
39    2        3.244638000000       9.753725000000       7.222798000000
40    1       15.372361000000       0.720642000000       7.241609000000
41    1        9.416368000000       7.873625000000      14.809252000000
42    2        9.847044000000       6.351713000000      10.757040000000
43    1       10.117251000000       4.078775000000       5.935526000000
44    1       10.632281000000       6.311055000000      11.306593000000
45    2       15.934387000000      12.241557000000       1.883230000000
46    1       15.847571000000      12.392627000000       0.961202000000
47    1       15.204248000000      12.782930000000       2.174552000000
48    2        2.882984000000      14.727259000000       6.879330000000
49    1       14.814755000000       5.390808000000       7.379645000000
50    1        3.520405000000      14.058849000000       7.235496000000
51    2       15.514803000000       9.311351000000      11.984494000000
52    1       14.078246000000       0.372714000000      14.212042000000
53    1       15.815639000000       9.643357000000      11.095288000000
54    2        9.346693000000       5.532070000000       1.863516000000
55    1        8.707279000000       5.750794000000       1.123481000000
56    1        8.988417000000       6.056265000000       2.615970000000
57    2        6.830658000000       4.138864000000       2.811290000000
58    1        7.117098000000       4.919187000000       3.252062000000
59    1        2.914088000000       7.523316000000      16.583323000000
60    2       12.537821000000      12.823346000000       7.223922000000
61    1        6.052485000000      12.735315000000      17.184759000000
62    1       12.568074000000      14.683101000000      15.427712000000
63    2        8.463305000000      13.916127000000       9.940521000000
64    1        2.104918000000      10.241459000000       8.581927000000
65    1        5.359292000000       4.312286000000       7.220933000000
66    2        4.755927000000      12.877212000000       7.576217000000
67    1        4.945800000000      15.393849000000       1.476952000000
68    1       11.737725000000      13.251024000000       7.538287000000
69    2        6.665218000000      17.107059000000       7.162766000000
70    1        6.370414000000      16.314119000000       7.717733000000
71    1        6.841843000000       0.541302000000       7.886621000000
72    2        7.160631000000       1.089745000000      13.737392000000
73    1        7.487678000000       1.423133000000      12.978774000000
74    1        6.545728000000       0.353724000000      13.655450000000
75    2        5.012793000000      16.379824000000      13.354636000000
76    1        4.380006000000      16.436815000000      14.083414000000
77    1        1.261231000000       5.163317000000      13.927631000000
78    2        3.813687000000      15.962532000000      15.685757000000
79    1        3.121210000000      16.586016000000      15.920638000000
80    1        4.333717000000      15.902854000000      16.471043000000
81    2       15.460159000000       3.364712000000      13.396236000000
82    1       15.600087000000       2.820901000000      12.575348000000
83    1       16.011801000000       3.096118000000      14.143400000000
84    2       14.438795000000       2.844691000000       9.280593000000
85    1       11.050281000000       1.952453000000       7.645675000000
86    1       12.976401000000       5.068051000000      15.767732000000
87    2       15.486658000000       5.943519000000       1.277749000000
88    1       14.641201000000       6.199687000000       1.614358000000
89    1       15.427711000000       5.054754000000       0.827889000000
90    2        7.792466000000      15.040219000000      15.815982000000
91    1        8.729526000000      15.041988000000      15.456756000000
92    1        7.659904000000      15.599540000000      16.643158000000
93    2        3.483506000000      15.834976000000       4.237903000000
94    1        3.707625000000      15.098226000000       3.659432000000
95    1        6.085912000000      16.329670000000       1.154876000000
96    2        5.622328000000       5.926348000000      12.863802000000
97    1       15.902100000000      10.023519000000      12.557554000000
98    1        1.050900000000       3.062061000000      14.522840000000
99    2       15.185614000000       3.414924000000      16.537008000000
100    1       16.840399000000       5.780591000000       2.703714000000
101    1       14.301038000000       3.030831000000      16.397137000000
102    2        2.300158000000      12.341880000000      13.083959000000
103    1        2.808336000000      11.639767000000      12.681705000000
104    1        2.653911000000      12.428591000000      13.985890000000
105    2       13.212771000000      14.948847000000      16.105024000000
106    1       13.117734000000       5.555144000000       3.722336000000
107    1        5.688685000000      11.593409000000       4.224513000000
108    2       11.201248000000       0.753964000000      14.673218000000
109    1       15.252489000000       1.919908000000       6.308167000000
110    1       10.693720000000       1.528356000000      15.023170000000
111    2        4.532279000000       4.213421000000       5.347707000000
112    1        3.574672000000       4.280770000000       5.186131000000
113    1        4.901503000000       3.664128000000       4.631186000000
114    2       16.565081000000      12.195651000000       4.552908000000
115    1       16.795191000000      12.364251000000       5.487482000000
116    1       16.334759000000      11.277941000000       4.406455000000
117    2       16.214569000000      15.801420000000      14.537125000000
118    1       15.427873000000      16.286280000000      14.755979000000
119    1       16.211332000000       2.633979000000       2.130329000000
120    2       15.084670000000      12.684426000000       9.724461000000
121    1       14.576140000000      12.110626000000      10.387506000000
122    1       14.557746000000      13.077712000000       9.002151000000
123    2       12.173822000000      11.705601000000       0.428847000000
124    1       11.760559000000       3.482099000000      11.002136000000
125    1       11.204901000000       4.038340000000       0.071159000000
126    2        9.998764000000      14.075195000000       7.693510000000
127    1        9.847950000000      15.059462000000       7.556689000000
128    1        4.744730000000       6.893014000000       8.998907000000
129    2        2.793054000000       1.552735000000       6.451238000000
130    1        3.273827000000       2.370294000000       6.568164000000
131    1        3.600770000000       8.888737000000       7.543065000000
132    2       12.125799000000      15.433964000000      13.021927000000
133    1       11.937865000000      14.880804000000      12.229946000000
134    1        9.579728000000      15.914110000000      12.217551000000
135    2       14.949297000000       5.400288000000       9.352801000000
136    1        1.752779000000       0.889479000000      11.371322000000
137    1       14.161819000000       5.680762000000       9.819824000000
138    2       14.253226000000       9.760061000000       0.860315000000
139    1       14.632404000000       9.793642000000       1.721948000000
140    1       14.926277000000       9.586068000000       0.221179000000
141    2       10.043075000000      12.341557000000      12.732200000000
142    1        9.208426000000       2.245534000000       3.930707000000
143    1        9.758276000000      13.239920000000      12.412442000000
144    2       17.143452000000       7.443242000000      17.034309000000
145    1        8.575196000000      17.062323000000       6.717070000000
146    1       16.622650000000       6.886756000000       0.439596000000
147    2        9.513450000000      16.466629000000       3.297545000000
148    1        9.618830000000      15.578187000000       3.742867000000
149    1        9.277759000000      17.149092000000       3.917228000000
150    2        3.238545000000      13.022681000000      15.718914000000
151    1       10.090510000000      17.126047000000       6.986749000000
152    1       14.025259000000       7.041196000000      12.782613000000
153    2        1.659377000000       1.052985000000       3.711080000000
154    1       15.735195000000       2.667083000000      16.782713000000
155    1        7.003622000000       0.193689000000       3.983067000000
156    2        9.993872000000       3.236374000000      15.636154000000
157    1        9.510526000000       3.900901000000      16.141735000000
158    1       10.326374000000       3.778761000000      14.979980000000
159    2        0.021190000000      14.756878000000       3.508993000000
160    1        7.744180000000       2.992988000000       1.647148000000
161    1       17.120213000000      15.279457000000       4.311028000000
162    2        1.863550000000       6.579647000000       7.454729000000
163    1        4.210739000000      16.465881000000       4.357005000000
164    1        2.779177000000       6.900598000000       7.600055000000
165    2       12.230510000000      16.697763000000      10.023182000000
166    1       11.799850000000      17.152115000000      10.775951000000
167    1       14.442898000000       2.405934000000       8.444015000000
168    2       12.310037000000      11.985332000000      14.801198000000
169    1       12.984366000000      12.516344000000      14.345586000000
170    1       11.586954000000      11.932116000000      14.137295000000
171    2        9.232290000000       9.653641000000       0.074281000000
172    1       10.169401000000       9.555079000000       0.360622000000
173    1        9.203991000000      10.599827000000      17.021194000000
174    2        6.907715000000      12.634924000000       1.816797000000
175    1       13.527541000000       2.821197000000       9.716637000000
176    1       13.175964000000      13.563596000000       7.324708000000
177    2        4.528452000000       7.276466000000       3.508834000000
178    1       12.880288000000       8.585777000000       0.606160000000
179    1       10.695909000000       0.020076000000      14.993170000000
180    2       15.733594000000       1.598650000000      11.395846000000
181    1       15.481156000000       1.814211000000      10.445214000000
182    1       16.645737000000       1.260214000000      11.372015000000
183    2        5.964391000000      14.947405000000       8.725106000000
184    1        5.707591000000      14.202054000000       8.209068000000
185    1       15.236233000000       5.237452000000      13.655796000000
186    2        2.837830000000       1.370680000000       9.893609000000
187    1        2.319722000000       0.964756000000       9.174138000000
188    1        3.494928000000       0.744290000000      10.118166000000
189    2       14.280730000000       0.449739000000      15.152995000000
190    1       13.390909000000       0.665863000000      15.498255000000
191    1        9.542900000000      13.813914000000       0.501268000000
192    2       13.160898000000       5.984421000000      15.562934000000
193    1        6.476385000000       7.005294000000       0.921596000000
194    1       12.891026000000       6.496129000000      16.374092000000
195    2       13.505487000000       4.637139000000       2.569078000000
196    1       12.742732000000       4.529516000000       2.015754000000
197    1       14.211267000000       3.979046000000       2.381799000000
198    2        7.227842000000      11.788044000000      13.182885000000
199    1        6.962050000000      11.233575000000      13.934538000000
200    1        6.891440000000      12.684898000000      13.444996000000
201    2       12.136913000000       7.945356000000       0.365396000000
202    1       11.648370000000       7.657731000000       1.168761000000
203    1        3.075071000000      11.556509000000      16.794006000000
204    2       10.519218000000       1.237757000000       0.808775000000
205    1       10.438985000000       0.245758000000       0.637538000000
206    1        9.629273000000       1.669480000000       0.834281000000
207    2        1.814007000000       4.310680000000      13.803039000000
208    1        1.782747000000       0.113890000000       3.491936000000
209    1        2.605508000000       1.568209000000       5.497115000000
210    2        7.174294000000      14.333794000000       4.195870000000
211    1        8.117107000000      14.228653000000       4.234107000000
212    1        6.959747000000      15.295216000000       4.166454000000
213    2        8.140811000000       5.023166000000      12.466753000000
214    1        8.759410000000       5.081923000000      13.225657000000
215    1       13.832914000000      15.590167000000       6.466745000000
216    2        5.740071000000      10.270885000000       0.993993000000
217    1        7.339457000000       5.145195000000      16.064753000000
218    1        0.689713000000       6.899130000000      14.987662000000
219    2       13.916084000000      15.020904000000       7.189433000000
220    1        1.693288000000      11.376195000000       9.727962000000
221    1       14.622421000000      15.297190000000       7.750014000000
222    2        6.327229000000       2.788917000000      15.651160000000
223    1        9.284641000000      12.034985000000      13.212280000000
224    1        5.825239000000       2.312844000000      16.337614000000
225    2        0.454231000000       6.525368000000      14.091967000000
226    1       14.621100000000       9.477618000000       4.249196000000
227    1       14.493960000000       6.241332000000      14.587605000000
228    2       13.125734000000       6.122479000000       4.585843000000
229    1        2.906496000000       9.593546000000       6.315814000000
230    1        3.632375000000       9.461828000000      12.300162000000
231    2       11.906573000000       2.920566000000      10.245615000000
232    1        8.369691000000      12.942610000000      10.263096000000
233    1       12.826667000000      10.979772000000       0.539462000000
234    2        2.161478000000      12.536259000000       4.268432000000
235    1       10.712891000000       0.739397000000      12.862003000000
236    1        1.211330000000       1.408442000000       2.932267000000
237    2        9.414950000000      12.854370000000       0.581535000000
238    1        7.795631000000      12.891192000000       1.427023000000
239    1        3.079257000000      12.838933000000       4.150346000000
240    2       11.546055000000       1.123132000000       7.711360000000
241    1       10.570009000000       4.864852000000       8.207905000000
242    1       12.013475000000       1.042051000000       6.816887000000
243    2        8.856761000000       1.463177000000       4.433108000000
244    1        9.041522000000       1.859052000000       5.322078000000
245    1       14.847912000000      13.871842000000      16.415636000000
246    2       12.947365000000       3.014289000000      13.818165000000
247    1       13.889834000000       3.370574000000      13.737477000000
248    1        3.301378000000      13.932137000000      15.342700000000
249    2        1.589493000000      16.677404000000       7.866376000000
250    1        1.925837000000       0.194947000000       7.345722000000
251    1        2.098993000000      15.905910000000       7.553431000000
252    2        9.732804000000      13.871596000000       4.791402000000
253    1        5.925540000000       4.274889000000       2.573565000000
254    1       10.524701000000      13.241605000000       4.699202000000
255    2        4.856153000000       5.505371000000      10.325941000000
256    1        5.171447000000       5.824647000000      11.190931000000
257    1        4.041514000000       5.095530000000      10.643964000000
258    2       15.360796000000       2.648131000000       2.663722000000
259    1       12.743087000000      12.852242000000       1.841619000000
260    1       14.803921000000       1.925333000000       2.344184000000
261    2        1.131114000000      10.868415000000       2.175779000000
262    1        2.586842000000       6.033025000000       0.801407000000
263    1        1.678944000000      10.278902000000       2.754825000000
264    2       15.039598000000       6.138139000000      13.742353000000
265    1        1.083943000000       6.150522000000       2.762867000000
266    1        8.380566000000       6.399831000000      16.039997000000
267    2        4.481618000000       7.256051000000       8.116984000000
268    1       13.041070000000      14.286087000000       2.283479000000
269    1        5.177907000000       7.230797000000       7.428236000000
270    2        5.162158000000      16.096313000000       0.866239000000
271    1        8.239999000000      11.645761000000       5.082704000000
272    1       15.933584000000       8.963889000000       3.797602000000
273    2        6.621915000000       9.830107000000      15.110991000000
274    1        6.436703000000      17.037172000000       5.367866000000
275    1        7.356448000000       9.200993000000      15.131926000000
276    2       11.455755000000       4.732819000000       0.705812000000
277    1        9.183356000000       5.991230000000      11.424536000000
278    1       10.658287000000       5.126600000000       1.066530000000
279    2        6.138699000000       9.746393000000       3.913195000000
280    1        6.282559000000       9.296225000000       4.781518000000
281    1        9.146577000000       8.026460000000       6.452546000000
282    2       16.876827000000      11.345213000000      13.494808000000
283    1       16.278133000000      12.083189000000      13.354980000000
284    1        0.585826000000      11.688757000000      13.290205000000
285    2        1.657857000000      13.695574000000       1.408400000000
286    1       11.321793000000       6.606282000000       7.133904000000
287    1        1.650507000000      13.201458000000       0.562929000000
288    2        1.027800000000       0.714889000000      11.928792000000
289    1        0.780524000000      16.940994000000      11.853358000000
290    1        4.716364000000      12.337207000000       6.750889000000
291    2        1.076023000000      16.302446000000       1.200856000000
292    1        1.286430000000      15.286510000000       1.152762000000
293    1        0.291158000000      16.464073000000       0.653763000000
294    2        5.217640000000      12.384285000000       4.424845000000
295    1       16.543636000000       8.849332000000      16.102736000000
296    1        0.468580000000       8.299625000000      11.932083000000
297    2        7.957847000000       2.376580000000       0.918394000000
298    1        6.656847000000       2.103080000000      15.086193000000
299    1       11.914646000000       8.531409000000       4.265833000000
300    2        1.582668000000      10.416021000000       9.416766000000
301    1       10.599313000000       3.891958000000       2.945410000000
302    1        6.755738000000      14.717404000000       9.258083000000
303    2        2.469141000000       3.937872000000      11.079858000000
304    1        2.629867000000       3.039084000000      10.768345000000
305    1        1.779234000000       4.411396000000      10.521802000000
306    2        1.550489000000       4.193151000000       5.441236000000
307    1        1.312214000000       4.473825000000       4.545083000000
308    1        8.296600000000      10.772241000000      10.471251000000
309    2        2.933833000000      10.831022000000       0.192429000000
310    1        3.762229000000      10.508821000000       0.566745000000
311    1       14.951622000000      16.534903000000       4.890750000000
312    2        4.047313000000      13.997127000000       2.381290000000
313    1        4.440014000000      13.111776000000       2.513612000000
314    1        3.149876000000      13.810693000000       1.857452000000
315    2       10.872045000000       4.835731000000      13.418998000000
316    1        5.836899000000       1.192544000000       9.601031000000
317    1       11.751832000000       4.378573000000      13.530915000000
318    2        8.618383000000       8.003189000000      15.365387000000
319    1        9.433089000000      13.841796000000       8.426007000000
320    1        8.901217000000       8.393209000000      16.195621000000
321    2       16.215164000000       3.016145000000       5.338953000000
322    1       17.153015000000       3.203138000000       5.439996000000
323    1       12.049385000000      11.944355000000      16.715034000000
324    2       10.929207000000       5.755142000000       8.272920000000
325    1       10.755957000000       6.251759000000       9.086774000000
326    1        4.981377000000       6.558406000000       3.970415000000
327    2        7.548499000000      16.838409000000       1.200573000000
328    1        8.213231000000      16.620548000000       1.846029000000
329    1       12.998983000000       2.144712000000      13.362867000000
330    2       13.638131000000      11.508665000000      11.386652000000
331    1       12.828433000000      11.846413000000      10.977553000000
332    1       12.184525000000       0.026334000000       9.250447000000
333    2       14.783606000000       1.438165000000       6.979338000000
334    1       16.726761000000       6.637221000000      13.890911000000
335    1        8.575447000000       9.317702000000       2.207274000000
336    2       12.356717000000      10.065970000000       7.423965000000
337    1       16.123114000000      14.991032000000      15.100723000000
338    1        5.002499000000      16.263279000000       9.817859000000
339    2        3.320579000000      10.237147000000      11.758930000000
340    1        4.164338000000      12.805807000000      15.758782000000
341    1        2.655810000000       9.694155000000      11.268369000000
342    2        9.441212000000       9.756536000000       7.440631000000
343    1        8.752222000000      10.307386000000       7.075776000000
344    1        9.390038000000       9.866428000000       8.454350000000
345    2       10.329796000000       0.511130000000      11.982305000000
346    1       11.530378000000       9.771486000000       7.762678000000
347    1        2.198957000000      11.701935000000       4.784098000000
348    2        2.648987000000       6.868156000000       1.192527000000
349    1        3.353232000000       6.814138000000       1.807688000000
350    1       10.440104000000       9.656432000000      10.846095000000
351    2        9.737537000000       9.598886000000      10.132946000000
352    1        2.825139000000       8.968021000000      16.279554000000
353    1        9.281015000000       8.735474000000      10.320004000000
354    2        4.083746000000       2.928885000000       2.659128000000
355    1        4.595917000000       2.371222000000       2.082791000000
356    1        3.354988000000       2.326541000000       2.869340000000
357    2        5.995269000000       4.264907000000       7.932693000000
358    1        7.664562000000       0.654327000000       1.109236000000
359    1        5.612234000000       4.586864000000       8.765070000000
360    2       13.359640000000       8.819683000000       9.825246000000
361    1       14.218175000000       8.835653000000       9.434258000000
362    1       12.923635000000       9.462711000000       9.223951000000
363    2        0.224374000000      15.085241000000      12.053713000000
364    1        7.240877000000       5.494277000000      12.587325000000
365    1       16.470684000000      15.078007000000      11.872385000000
366    2       12.662354000000       9.512878000000       4.751693000000
367    1       10.474002000000      13.976021000000      14.795662000000
368    1       12.348991000000      10.361748000000       4.415280000000
369    2       16.061472000000      16.681122000000       8.672311000000
370    1        1.287311000000       3.061901000000       1.157292000000
371    1       15.818785000000      16.308701000000       9.578330000000
372    2       13.301833000000      13.353139000000       2.438107000000
373    1        7.046312000000       9.735001000000       3.522812000000
374    1       10.179162000000      12.539972000000       1.036740000000
375    2        4.426618000000       8.292807000000      13.539297000000
376    1        5.032841000000       8.853914000000      14.075997000000
377    1        3.720913000000       8.155587000000      14.240613000000
378    2        8.087411000000       2.249187000000      11.505029000000
379    1        7.981121000000       3.138907000000      11.789796000000
380    1        7.468139000000       2.204976000000      10.735224000000
381    2       11.977335000000      12.159539000000       4.744488000000
382    1       12.275836000000      12.431903000000       5.613979000000
383    1       12.528772000000      12.586740000000       4.083193000000
384    2        6.252147000000      16.933802000000       4.401700000000
385    1        0.163269000000      15.075701000000      13.006669000000
386    1        1.495700000000       4.904186000000       6.058378000000
387    2       14.588256000000      13.170061000000      13.284138000000
388    1       14.204406000000      12.672174000000      12.562012000000
389    1       14.264312000000      14.050515000000      13.253090000000
390    2        2.533240000000       9.297613000000       4.556352000000
391    1        1.792914000000       8.723582000000       4.831350000000
392    1        3.253137000000       8.669365000000       4.292699000000
393    2       10.640602000000       2.958263000000       3.097620000000
394    1       10.725623000000       2.443794000000       2.291816000000
395    1        8.564629000000      14.501799000000      10.740254000000
396    2        7.707231000000      11.620294000000       5.867423000000
397    1       13.239500000000       0.368021000000       1.475547000000
398    1       17.032928000000      16.562212000000       8.589276000000
399    2       13.944548000000      16.573174000000       4.950008000000
400    1       13.717726000000       0.311668000000       5.015715000000
401    1        4.313021000000      13.889600000000      10.291898000000
402    2        7.589417000000      11.465774000000      10.636621000000
403    1        1.490601000000       6.548808000000       8.338009000000
404    1       12.380120000000      11.072210000000       7.410355000000
405    2       15.448274000000       8.128634000000       7.430915000000
406    1       15.390068000000       7.239563000000       7.670918000000
407    1       15.901478000000       8.567122000000       8.190030000000