# File generated with Atomsk by upg826249 on 2026-05-05 22:18:06

518  atoms
4  atom types

0.000000000000      17.200000000000  xlo xhi
0.000000000000      17.200000000000  ylo yhi
0.000000000000      17.200000000000  zlo zhi

Masses

1   1.00800000              # H
2   15.99900000             # O
3   24.30500000             # Mg
4   30.97376200             # P

Atoms # atomic

1    3        0.173211000000       7.296601000000      10.073008000000
2    2        9.513647000000       7.469995000000       5.042404000000
3    4        9.255836000000       6.868751000000       3.642014000000
4    2       10.297400000000       6.261351000000       2.763352000000
5    2        7.951439000000       7.262476000000       3.015108000000
6    2        9.961311000000       8.888117000000       3.089688000000
7    4       10.706845000000       9.322314000000       1.747400000000
8    2       11.983171000000       8.683213000000       1.451558000000
9    2        9.503413000000       9.086502000000       0.654783000000
10    2       10.821105000000      10.939148000000       1.871876000000
11    3       14.150990000000      11.416655000000      12.214391000000
12    2        6.051975000000      16.681696000000      15.006811000000
13    1        0.328345000000      13.831570000000       7.008157000000
14    1        5.776912000000      16.277891000000      14.166608000000
15    2        2.724704000000       8.947612000000      14.075414000000
16    1       15.052580000000      13.871095000000      12.566285000000
17    1        2.887846000000       9.704223000000      13.495842000000
18    2        3.575811000000       6.659874000000       9.103341000000
19    1        2.734714000000       7.158296000000       8.744635000000
20    1        9.378592000000       5.254462000000      14.257785000000
21    2        7.434717000000       4.662593000000       6.496595000000
22    1        7.782054000000       4.978987000000       7.369529000000
23    1        8.058337000000       4.827111000000       5.654569000000
24    2        5.950220000000       9.599612000000      11.424103000000
25    1        6.401427000000       8.993587000000      12.028356000000
26    1        5.056077000000       9.498493000000      11.718205000000
27    2       16.933504000000       1.616351000000      10.865068000000
28    1        0.415500000000       2.061162000000      11.389582000000
29    1       16.728874000000       2.234142000000      10.128701000000
30    2       15.387240000000      15.943231000000      16.079420000000
31    1       13.767809000000       2.300775000000       4.387927000000
32    1       15.335194000000      16.414011000000      16.866940000000
33    2        9.635320000000      15.907833000000      13.910878000000
34    1       11.065190000000      16.713171000000      16.818350000000
35    1       13.210151000000       2.902982000000       1.364891000000
36    2        9.154080000000       8.345577000000      10.512468000000
37    1       15.584421000000       8.716168000000       9.555202000000
38    1        9.719410000000       8.721810000000      11.156384000000
39    2        2.389613000000      13.937728000000      16.955742000000
40    1        6.865518000000      14.713396000000       6.990131000000
41    1       13.384919000000       0.281406000000      14.394387000000
42    2        2.395186000000       5.994200000000      12.733040000000
43    1       15.165498000000       1.334261000000      11.066961000000
44    1        6.946736000000       3.797055000000       6.402528000000
45    2       14.566834000000      10.009179000000      13.865195000000
46    1       15.174167000000       9.270989000000      13.626339000000
47    1       13.920940000000       9.472969000000      14.423542000000
48    2       15.909432000000       2.612026000000      13.920183000000
49    1        3.762534000000       4.420280000000      10.409577000000
50    1       16.219376000000      10.647488000000       8.164840000000
51    2        0.213989000000       8.893397000000       3.164748000000
52    1        7.617622000000      12.004808000000      13.376303000000
53    1       16.822649000000       8.457103000000       3.728805000000
54    2        0.369580000000      11.620785000000       2.599591000000
55    1        0.274844000000      10.698211000000       2.829761000000
56    1        6.070637000000       2.845362000000       4.978695000000
57    2        1.293999000000      13.834424000000      13.082767000000
58    1        8.253867000000      17.013449000000       2.599900000000
59    1        0.719837000000      13.044188000000      13.022654000000
60    2       11.373861000000      11.236760000000      15.427178000000
61    1       10.353179000000      16.291359000000       6.552529000000
62    1       12.258320000000      11.160237000000      15.863594000000
63    2        6.099636000000       7.701885000000       9.057383000000
64    1       15.647476000000       6.932666000000      12.882646000000
65    1        9.213524000000       4.412815000000       3.942240000000
66    2        2.256468000000       4.803702000000       5.613185000000
67    1       11.409053000000       0.355871000000       8.132934000000
68    1       10.968784000000      10.344785000000      15.460771000000
69    2       10.976214000000      12.414289000000       9.281120000000
70    1       10.417559000000      11.761979000000       9.633015000000
71    1       11.514523000000      12.125759000000       8.517131000000
72    2       13.358758000000      16.509626000000      14.372234000000
73    1       14.052916000000      16.172146000000      14.964275000000
74    1       12.833694000000       4.045388000000      10.738441000000
75    2       12.015318000000      16.345882000000      16.805759000000
76    1        4.263553000000       4.052011000000       0.755515000000
77    1        7.483565000000      10.965946000000      15.924138000000
78    2       13.846860000000       3.096430000000       4.873757000000
79    1       14.139965000000       2.869545000000       5.816558000000
80    1       16.033875000000       5.900924000000      16.197224000000
81    2        4.075041000000       7.537573000000       1.307293000000
82    1        4.502891000000       7.168066000000       2.125507000000
83    1        1.308672000000       5.019820000000       9.860537000000
84    2       10.738803000000      15.158566000000      10.505450000000
85    1       11.875293000000       3.395108000000       5.532225000000
86    1       14.524110000000       5.675897000000      16.347431000000
87    2       10.523786000000       1.270977000000      13.065740000000
88    1        9.765558000000       1.556806000000      13.493624000000
89    1       11.329089000000       5.966095000000       7.020988000000
90    2       13.281789000000       7.531725000000      10.775061000000
91    1       11.080154000000      16.429888000000       8.930051000000
92    1        2.338426000000       4.904855000000      14.119290000000
93    2       12.655588000000       5.799410000000       4.090384000000
94    1        9.104769000000       9.811241000000       0.092343000000
95    1        4.506417000000      12.324333000000      14.462654000000
96    2        4.406073000000      10.646077000000       1.260947000000
97    1        1.430737000000      14.767490000000      10.799330000000
98    1       11.148576000000      14.971104000000      11.386641000000
99    2        2.856662000000       4.448298000000      10.666683000000
100    1        8.238989000000       4.407947000000      10.052317000000
101    1        2.328037000000       3.444902000000      11.452431000000
102    2        0.224703000000      10.791934000000      13.616535000000
103    1       16.766474000000      10.913710000000      14.328151000000
104    1       16.970104000000      10.933610000000      12.717319000000
105    2        3.048958000000      17.150326000000      11.506352000000
106    1        8.554111000000      12.781854000000       2.731033000000
107    1        6.159389000000      10.209473000000       1.818590000000
108    2        4.109286000000       1.510306000000       0.680845000000
109    1        0.332663000000       8.329169000000       2.387291000000
110    1        3.240858000000       5.937474000000       9.704963000000
111    2       12.830392000000      10.959737000000       7.212699000000
112    1       12.459594000000      10.223129000000       7.689466000000
113    1       13.647477000000      11.043225000000       7.683085000000
114    2       12.526107000000      12.064734000000      13.331256000000
115    1       11.850989000000      11.655477000000      13.971148000000
116    1       12.236751000000      12.994720000000      13.137222000000
117    2        8.745185000000       6.408238000000      15.991769000000
118    1        8.040914000000       6.947545000000      16.392443000000
119    1        9.449060000000       6.085257000000      16.639177000000
120    2       14.222044000000       2.592092000000       7.438364000000
121    1       13.591440000000       7.295810000000       3.362944000000
122    1        9.569684000000      16.268311000000      14.846352000000
123    2        4.100858000000       1.925506000000      14.805795000000
124    1        8.040536000000       2.982566000000      13.376560000000
125    1        0.757025000000       7.829389000000       0.333823000000
126    2        2.523980000000       4.401170000000      14.959494000000
127    1        2.982463000000      11.921733000000       4.337358000000
128    1        4.860497000000       4.123132000000       8.044732000000
129    2        2.907901000000      12.467918000000       5.918899000000
130    1       15.396374000000       5.254514000000       7.860486000000
131    1        4.504732000000      15.940547000000      12.265991000000
132    2       16.239586000000       3.484307000000       8.952721000000
133    1        2.687431000000       3.139602000000       7.877462000000
134    1        3.899223000000      10.817837000000       0.434367000000
135    2       14.832162000000       2.905527000000       1.675682000000
136    1        7.484408000000      11.199350000000       9.042624000000
137    1       15.188133000000       3.505549000000       2.347095000000
138    2        5.407525000000      13.245617000000       7.366141000000
139    1        5.017395000000      13.821765000000       8.046453000000
140    1        3.575381000000       9.991600000000       8.549209000000
141    2       15.802225000000      13.648011000000       6.932116000000
142    1       12.573355000000       5.377133000000      14.581180000000
143    1        4.539252000000       0.701346000000       0.327818000000
144    2        5.985721000000      12.295884000000       4.394359000000
145    1        2.428984000000       3.390739000000       9.361100000000
146    1        1.456917000000      14.875454000000       6.928642000000
147    2       13.711944000000      11.354477000000      16.898605000000
148    1       14.316798000000      10.582765000000      16.935997000000
149    1       16.788731000000       2.935042000000       8.341553000000
150    2       16.182568000000       5.655653000000       2.132370000000
151    1        1.718289000000       8.927660000000       4.177966000000
152    1        9.202843000000       6.225162000000       8.056807000000
153    2        1.163776000000      11.519287000000      10.607481000000
154    1        1.312869000000      12.471272000000      10.634364000000
155    1       10.713485000000      14.280283000000      10.091274000000
156    2       13.358810000000      11.935304000000       2.419472000000
157    1       13.597701000000      11.411581000000       3.196706000000
158    1       10.435928000000       4.878023000000       6.365221000000
159    2       12.608838000000      10.018656000000      11.325133000000
160    1        2.502308000000      10.447986000000      15.619389000000
161    1       11.815059000000      10.042685000000      11.875293000000
162    2       10.060091000000      10.261812000000       4.945086000000
163    1       12.891830000000       4.920232000000       4.289026000000
164    1       10.020083000000       9.714422000000       4.060697000000
165    2       10.882595000000      12.617507000000       5.205219000000
166    1       11.798547000000      12.379683000000       5.331484000000
167    1        5.864185000000      12.762228000000       5.240840000000
168    2        9.842184000000       1.586674000000      10.561867000000
169    1        2.170606000000      16.776381000000      11.548407000000
170    1       10.659305000000       1.793014000000      10.021322000000
171    2       13.131650000000       8.379014000000      15.769321000000
172    1       13.874776000000       7.758352000000      15.781172000000
173    1       10.232228000000       1.316118000000      12.137954000000
174    2       11.937660000000      14.765650000000      13.108843000000
175    1       11.025906000000      14.978448000000      13.428745000000
176    1       14.589023000000       1.712673000000       7.577873000000
177    2        4.417080000000      14.934536000000       9.412992000000
178    1       13.887675000000       9.391440000000       4.213054000000
179    1        3.386353000000       1.208914000000       1.245239000000
180    2        1.810936000000      14.363101000000       9.988832000000
181    1       17.171810000000      14.438970000000       2.340249000000
182    1       14.287696000000       7.598874000000      10.537821000000
183    2        4.810393000000       4.398384000000      17.177692000000
184    1        0.792502000000      17.023012000000      14.497846000000
185    1       11.920650000000       2.033160000000      13.792388000000
186    2        3.154979000000      11.069799000000      12.371702000000
187    1        3.606719000000       2.784422000000      14.704641000000
188    1        2.348540000000      11.238772000000      11.886335000000
189    2        7.704018000000      11.179690000000      12.862934000000
190    1       14.025998000000       5.188931000000      12.762056000000
191    1        1.665725000000      11.205507000000       8.968062000000
192    2       10.199841000000      13.413713000000      16.708681000000
193    1        0.640107000000       8.851946000000      14.988682000000
194    1       10.623631000000      12.659613000000      16.335373000000
195    2        6.902102000000      10.028804000000       2.424220000000
196    1        1.651384000000       5.491169000000       5.916938000000
197    1       10.016575000000       5.636956000000      10.270188000000
198    2        4.924738000000       9.895504000000       5.253654000000
199    1        2.446838000000      13.122344000000       6.462711000000
200    1       12.906485000000      15.705698000000       6.731908000000
201    2        5.385733000000       0.485642000000       7.020008000000
202    1        6.045353000000      16.968592000000       7.156163000000
203    1        5.434787000000       9.845211000000      14.513377000000
204    2        8.629257000000      10.952994000000      10.142410000000
205    1        8.527657000000      11.447615000000      10.955901000000
206    1        8.527571000000      10.005739000000      10.438887000000
207    2        1.247542000000      13.973349000000       7.285507000000
208    1        7.904019000000      11.213574000000       2.699746000000
209    1        5.809937000000      12.522443000000       7.841463000000
210    2       14.473508000000      15.060457000000      11.250434000000
211    1        4.121206000000       9.464592000000       4.942764000000
212    1       14.043645000000      15.869889000000      11.612425000000
213    2       13.926926000000      16.926813000000       1.549068000000
214    1       13.541835000000      17.060835000000       2.464485000000
215    1       13.682996000000      12.799053000000       2.544654000000
216    2       11.576632000000       8.812093000000       8.350652000000
217    1        9.537297000000       0.994387000000      16.140755000000
218    1       16.737663000000      10.079647000000      16.873165000000
219    2        5.380899000000       8.123853000000      14.018946000000
220    1        5.319461000000       7.661275000000      14.948606000000
221    1        4.620109000000       7.842959000000      13.462131000000
222    2        9.236641000000      13.987934000000       2.039851000000
223    1       15.523654000000      12.906054000000       7.492269000000
224    1        1.301149000000      11.736833000000       2.661132000000
225    2       17.135603000000      10.955884000000      16.729082000000
226    1        9.180861000000       0.040229000000       4.975255000000
227    1        9.949426000000       9.783532000000       5.754484000000
228    2        8.559649000000       4.977903000000       4.363124000000
229    1        2.868014000000      13.497184000000      16.208506000000
230    1       12.192633000000      16.949242000000       3.965271000000
231    2       15.214157000000       8.798230000000       0.589933000000
232    1       10.795873000000      14.129370000000      16.552420000000
233    1        4.217543000000       1.937924000000      15.802500000000
234    2       13.589221000000      12.588026000000      10.510611000000
235    1        0.912338000000       0.903593000000       7.720151000000
236    1        0.176697000000      11.432633000000      10.777434000000
237    2        8.701136000000       0.571886000000       4.272084000000
238    1        8.272065000000       1.314722000000       4.734162000000
239    1       12.699792000000      12.379339000000      10.235238000000
240    2       11.029294000000       3.258196000000       5.960127000000
241    1       15.999492000000      17.143412000000       8.366785000000
242    1       10.530993000000       2.883941000000       5.248460000000
243    2       14.114045000000      14.501561000000       3.149268000000
244    1       15.075370000000      14.334945000000       3.462549000000
245    1       12.814705000000       7.415230000000       9.951679000000
246    2        5.493577000000       1.639155000000      12.431042000000
247    1       14.304053000000      15.217854000000       2.569663000000
248    1       15.423378000000       5.857254000000       1.606991000000
249    2       15.232268000000       6.284914000000      16.603676000000
250    1       13.072412000000       6.139832000000      12.035235000000
251    1       16.181004000000       4.937122000000       3.776208000000
252    2        0.129435000000       4.400018000000      16.144350000000
253    1       15.295255000000      15.332355000000      10.863176000000
254    1        1.069792000000       4.605351000000      15.870199000000
255    2       10.037834000000       2.560891000000      16.112238000000
256    1        9.889862000000       3.011101000000      16.956533000000
257    1       10.073025000000       3.232809000000      15.409308000000
258    2       17.148090000000      17.060595000000      13.988450000000
259    1        4.864022000000       1.517583000000      13.175182000000
260    1       16.487921000000      16.624092000000      14.568056000000
261    2       15.177865000000      13.032440000000      12.992484000000
262    1        6.387220000000      14.442599000000      10.386083000000
263    1       15.185639000000      13.122930000000      13.978010000000
264    2       12.786669000000       2.441695000000      13.978010000000
265    1        1.855846000000       0.956421000000       3.751612000000
266    1        8.959291000000      17.190523000000      17.089283000000
267    2        4.210147000000       4.587533000000       7.413028000000
268    1        7.677117000000       6.105123000000      12.894135000000
269    1       15.344929000000       7.953263000000       0.123912000000
270    2        6.812456000000       1.922977000000      16.512016000000
271    1        6.957933000000       2.051152000000      15.545652000000
272    1        7.421714000000      16.461157000000       1.569325000000
273    2        8.316854000000      16.717627000000       1.667710000000
274    1       12.236115000000       2.204868000000       0.438130000000
275    1       14.734707000000       3.115763000000       8.148105000000
276    2        1.016589000000       7.384700000000       1.166833000000
277    1        2.044254000000       7.298820000000       1.068860000000
278    1       11.774638000000      11.128624000000       1.999190000000
279    2        3.883020000000      13.054886000000      14.219326000000
280    1        3.759903000000       0.302519000000      10.096692000000
281    1        4.455419000000      13.787468000000      13.827561000000
282    2        5.706100000000       3.328097000000       9.362562000000
283    1        5.303242000000       2.453700000000       9.541287000000
284    1        6.515308000000       3.435855000000       9.850096000000
285    2       15.830123000000      10.811301000000      11.266963000000
286    1       16.645988000000       4.950005000000      11.450693000000
287    1       15.994057000000       9.870546000000      11.313420000000
288    2        6.893485000000      11.028967000000       8.300290000000
289    1        6.121652000000      10.579186000000       8.606003000000
290    1        5.734824000000       0.830591000000      11.980987000000
291    2        0.258888000000      16.098375000000      11.540512000000
292    1        0.213854000000      16.261000000000      12.516922000000
293    1        0.036438000000      16.929529000000      11.112645000000
294    2        5.682364000000       7.189909000000      16.299891000000
295    1       16.946058000000       6.082006000000       1.687994000000
296    1       12.711126000000       2.218645000000       8.760855000000
297    2        2.740029000000      11.088376000000      16.280987000000
298    1        8.700362000000      14.804746000000       1.936376000000
299    1       15.359273000000       6.747113000000       8.530805000000
300    2       15.919013000000       7.798342000000      13.201000000000
301    1       12.024468000000       5.364525000000      15.971559000000
302    1        2.631652000000       5.493886000000      11.886576000000
303    2       10.827193000000       5.821667000000      10.733195000000
304    1       10.835363000000       6.705403000000      11.083663000000
305    1        7.009499000000       1.888973000000      13.102392000000
306    2       12.220119000000       2.723947000000       1.237934000000
307    1       14.258852000000       3.711124000000      10.855075000000
308    1        3.533912000000       1.426317000000       9.038394000000
309    2        9.067392000000       8.973876000000       7.340736000000
310    1        3.266504000000       4.848491000000      15.448679000000
311    1        8.049651000000      15.588532000000       6.475267000000
312    2        2.578246000000       3.619757000000       3.093437000000
313    1        2.324511000000       4.073356000000       3.906275000000
314    1        1.814445000000       3.279352000000       2.572157000000
315    2       13.088977000000       5.455359000000      12.753645000000
316    1        7.377579000000       9.234715000000       2.251101000000
317    1       16.933142000000      12.826453000000       3.617023000000
318    2       10.419554000000       8.522325000000      15.001186000000
319    1       13.430190000000      11.621507000000       0.578230000000
320    1        9.899993000000       8.004880000000      15.621917000000
321    2       11.272708000000      16.533484000000       8.006618000000
322    1        5.886992000000       3.354378000000       2.661476000000
323    1        7.530211000000      15.416584000000      10.870193000000
324    2       15.970355000000       4.845016000000      12.131659000000
325    1       16.145899000000       4.010593000000      12.608288000000
326    1        3.410794000000      14.953680000000       9.566829000000
327    2       10.273698000000      10.037094000000      12.901462000000
328    1        6.996461000000       2.555937000000       0.872998000000
329    1        5.431037000000       3.679063000000      16.937426000000
330    2        1.391076000000       7.835237000000       8.551565000000
331    1        1.534558000000       8.796028000000       8.427948000000
332    1        9.450128000000      10.585671000000      13.049520000000
333    2        5.114506000000      15.383233000000      12.797247000000
334    1        5.811416000000      15.037478000000      12.148549000000
335    1        5.446225000000       6.386738000000       4.272600000000
336    2        7.123552000000       2.789083000000       1.809010000000
337    1        7.808456000000       2.285209000000       2.235553000000
338    1        6.820832000000      10.918749000000      12.502766000000
339    2       13.007345000000       0.159644000000       4.216889000000
340    1        5.862413000000       1.802956000000       6.256001000000
341    1       16.908392000000       6.339972000000       6.462917000000
342    2        0.123627000000       8.176158000000      15.541163000000
343    1        3.342682000000      11.906081000000      12.824836000000
344    1       16.712742000000       7.785769000000      14.866097000000
345    2        0.078898000000       1.181234000000       7.458006000000
346    1        1.665173000000       2.725168000000       5.190495000000
347    1       13.468959000000      13.503720000000      10.805058000000
348    2        9.506560000000       4.517511000000      13.685472000000
349    1       10.223559000000       4.805457000000      13.052753000000
350    1       10.885983000000      13.241764000000       4.473772000000
351    2       12.760732000000       6.834575000000       6.626145000000
352    1       13.563576000000       6.461300000000       6.966877000000
353    1       12.802648000000       6.561559000000       5.700734000000
354    2        2.626371000000      16.385666000000      15.434764000000
355    1        3.133513000000       0.020774000000      15.342262000000
356    1        2.039834000000       8.446662000000      13.630518000000
357    2       11.414780000000      14.996612000000       3.566678000000
358    1       12.334257000000      14.803421000000       3.381761000000
359    1       10.846905000000      14.686582000000       2.875479000000
360    2       15.561081000000       7.800028000000       9.764148000000
361    1        2.872125000000      15.863853000000      14.642240000000
362    1        5.499683000000       6.321378000000      16.708717000000
363    2        3.098580000000      11.832327000000       3.372008000000
364    1       13.237515000000      16.713568000000       0.941279000000
365    1        5.210757000000       7.265349000000       9.071744000000
366    2        1.973132000000       0.307741000000       3.051160000000
367    1        2.257311000000      11.038203000000       7.459657000000
368    1       12.554503000000      15.389820000000      13.511013000000
369    2        5.710314000000      16.405653000000       0.436001000000
370    1        6.862611000000      17.132799000000      14.751959000000
371    1        1.853902000000      11.362561000000      16.578873000000
372    2        7.489172000000       6.949970000000      12.493031000000
373    1        6.773532000000       7.253515000000      13.080135000000
374    1       10.675937000000       5.645074000000       1.124897000000
375    2        5.315798000000       3.656324000000       3.438005000000
376    1        1.055122000000       0.004366000000       2.911908000000
377    1        4.338012000000       3.569275000000       3.245726000000
378    2        6.710012000000      15.347147000000       3.739624000000
379    1       12.701478000000       3.168636000000      14.624386000000
380    1        6.425163000000       1.077757000000      16.718176000000
381    2        3.921858000000      15.161490000000       2.304714000000
382    1        3.238605000000      15.812166000000       2.581239000000
383    1        3.415284000000      14.643134000000       1.645866000000
384    2       15.425200000000      13.096596000000      15.794038000000
385    1        3.778530000000      12.441603000000       3.221491000000
386    1       11.750971000000       5.760968000000       3.689417000000
387    2        9.707405000000      16.054256000000       5.858853000000
388    1       10.150701000000      15.368183000000       5.339035000000
389    1        6.528054000000      15.977372000000       4.452306000000
390    2       13.489152000000       3.439174000000      10.365993000000
391    1        1.245302000000      14.614118000000       9.248096000000
392    1        8.648986000000       3.268981000000      10.935348000000
393    2       12.785052000000       5.062321000000      15.452875000000
394    1       17.193687000000      11.311202000000       0.390992000000
395    1        6.126485000000       8.179408000000       9.925036000000
396    2        8.073267000000       4.019674000000      10.912454000000
397    1        1.114385000000      14.245229000000       1.235220000000
398    1        5.089669000000      15.837244000000       0.929192000000
399    2        7.323364000000      15.555835000000       7.128918000000
400    1        1.713311000000       6.645753000000      12.433209000000
401    1        8.556398000000       7.898928000000      11.136106000000
402    2        2.371691000000       8.778656000000       4.879898000000
403    1       10.258062000000      11.230431000000       4.992386000000
404    1       16.120527000000      12.573252000000      16.152021000000
405    2        9.959144000000       2.747975000000       3.379387000000
406    1        8.107134000000       6.554060000000       9.114177000000
407    1        5.231449000000       7.664922000000      17.037012000000