ITEM: TIMESTEP
0
ITEM: NUMBER OF ATOMS
518
ITEM: BOX BOUNDS pp pp pp
0.0000000000000000e+00 1.7199999999999999e+01
0.0000000000000000e+00 1.7199999999999999e+01
0.0000000000000000e+00 1.7199999999999999e+01
ITEM: ATOMS id type xs ys zs
76 1 0.247881 0.235582 0.0439253
108 2 0.238912 0.0878085 0.039584
179 1 0.196881 0.0702857 0.0723976
265 1 0.107898 0.0556059 0.218117
312 2 0.149898 0.210451 0.179851
313 1 0.135146 0.236823 0.227109
314 1 0.105491 0.19066 0.149544
366 2 0.114717 0.0178919 0.177393
376 1 0.0613443 0.000253837 0.169297
435 2 0.0249826 0.170012 0.0916838
436 1 0.0189623 0.116666 0.0883437
437 1 0.0231198 0.191837 0.0398498
143 1 0.26391 0.0407759 0.0190592
322 1 0.342267 0.195022 0.154737
328 1 0.406771 0.148601 0.0507557
336 2 0.41416 0.162156 0.105175
337 1 0.45398 0.132861 0.129974
375 2 0.309058 0.212577 0.199884
377 1 0.25221 0.207516 0.188705
237 2 0.50588 0.0332492 0.248377
274 1 0.711402 0.12819 0.0254727
306 2 0.710472 0.158369 0.0719729
405 2 0.57902 0.159766 0.196476
459 1 0.577062 0.102645 0.198066
465 1 0.616934 0.167067 0.156347
35 1 0.768032 0.168778 0.0793541
135 2 0.862335 0.168926 0.0974234
137 1 0.883031 0.203811 0.136459
339 2 0.756241 0.00928163 0.245168
498 1 0.906178 0.152086 0.0689319
512 2 0.963525 0.0187045 0.0806318
513 1 0.909172 0.0200466 0.0921827
81 2 0.236921 0.438231 0.0760054
109 1 0.0193409 0.484254 0.138796
125 1 0.0440131 0.455197 0.0194083
276 2 0.059104 0.429343 0.0678391
277 1 0.118852 0.42435 0.062143
492 1 0.236396 0.493191 0.0825165
5 2 0.462293 0.422237 0.175297
82 1 0.261796 0.416748 0.123576
335 1 0.316641 0.371322 0.248407
510 1 0.402543 0.392235 0.185964
515 2 0.339298 0.365332 0.192567
517 1 0.328775 0.308934 0.18287
3 4 0.53813 0.399346 0.211745
4 2 0.598686 0.364032 0.16066
65 1 0.53567 0.256559 0.2292
93 2 0.73579 0.337175 0.237813
163 1 0.749525 0.28606 0.249362
374 1 0.620694 0.328202 0.065401
386 1 0.683196 0.33494 0.214501
479 2 0.635304 0.302152 0.0180999
480 1 0.662529 0.252537 0.035601
53 1 0.978061 0.491692 0.216791
121 1 0.7902 0.424175 0.19552
150 2 0.940847 0.328817 0.123975
248 1 0.896708 0.340538 0.0934297
251 1 0.940756 0.287042 0.219547
269 1 0.892147 0.462399 0.00720419
295 1 0.985236 0.353605 0.0981392
423 2 0.815774 0.472685 0.182344
425 1 0.775263 0.496514 0.145804
431 1 0.87492 0.496444 0.089718
51 2 0.0124412 0.517058 0.183997
54 2 0.0214872 0.675627 0.151139
55 1 0.0159793 0.621989 0.164521
134 1 0.226699 0.628944 0.0252539
151 1 0.0999005 0.51905 0.242905
224 1 0.0756482 0.682374 0.154717
363 2 0.18015 0.687926 0.196047
385 1 0.219682 0.723349 0.187296
493 1 0.230744 0.640826 0.118606
96 2 0.256167 0.618958 0.0733109
106 1 0.497332 0.743131 0.158781
107 1 0.358104 0.593574 0.105732
195 2 0.401285 0.58307 0.140943
208 1 0.459536 0.651952 0.156962
316 1 0.428929 0.536902 0.130878
458 2 0.476985 0.698653 0.192253
460 1 0.429701 0.71542 0.224855
6 2 0.579146 0.516751 0.179633
7 4 0.622491 0.541995 0.101593
8 2 0.696696 0.504838 0.0843929
9 2 0.552524 0.528285 0.0380688
10 2 0.629134 0.635997 0.10883
94 1 0.529347 0.570421 0.00536878
164 1 0.582563 0.564792 0.236087
278 1 0.684572 0.647013 0.116232
156 2 0.776675 0.693913 0.140667
157 1 0.790564 0.663464 0.185855
178 1 0.807423 0.546014 0.244945
215 1 0.795523 0.744131 0.147945
231 2 0.884544 0.511525 0.0342984
317 1 0.984485 0.745724 0.210292
319 1 0.780825 0.675669 0.033618
394 1 0.999633 0.657628 0.0227321
381 2 0.228015 0.881482 0.133995
382 1 0.188291 0.919312 0.150072
383 1 0.198563 0.851345 0.0956899
397 1 0.0647898 0.828211 0.0718151
438 2 0.0250159 0.864109 0.0889167
58 1 0.479876 0.989154 0.151157
272 1 0.431495 0.957044 0.0912398
273 2 0.483538 0.971955 0.0969599
369 2 0.331995 0.953817 0.0253489
378 2 0.390117 0.892276 0.21742
398 1 0.295911 0.92077 0.0540228
421 1 0.340485 0.881461 0.19266
222 2 0.537014 0.813252 0.118596
230 1 0.708874 0.985421 0.230539
298 1 0.505835 0.860741 0.11258
357 2 0.66365 0.871896 0.207365
358 1 0.717108 0.860664 0.196614
359 1 0.630634 0.853871 0.167179
413 1 0.557398 0.800117 0.0680063
181 1 0.998361 0.839475 0.136061
213 2 0.809705 0.984117 0.0900621
214 1 0.787316 0.991909 0.143284
243 2 0.820584 0.843114 0.183097
244 1 0.876475 0.833427 0.201311
247 1 0.831631 0.884759 0.149399
364 1 0.769623 0.971719 0.0547255
409 1 0.976133 0.962292 0.0718982
494 2 0.957134 0.790473 0.235838
133 1 0.156246 0.182535 0.457992
235 1 0.0530429 0.0525345 0.448846
345 2 0.00458709 0.0686764 0.433605
346 1 0.0968124 0.15844 0.301773
412 1 0.0105501 0.0807669 0.37901
428 1 0.00877262 0.168626 0.282686
485 2 0.0499374 0.131104 0.302267
44 1 0.40388 0.220759 0.37224
56 1 0.352944 0.165428 0.289459
128 1 0.282587 0.239717 0.467717
201 2 0.313124 0.028235 0.40814
238 1 0.480934 0.0764373 0.275242
340 1 0.340838 0.104823 0.363721
490 1 0.281206 0.0210484 0.456905
497 2 0.378154 0.142498 0.336204
67 1 0.663317 0.0206902 0.472845
85 1 0.690424 0.19739 0.321641
226 1 0.533771 0.0023389 0.289259
240 2 0.641238 0.18943 0.346519
242 1 0.612267 0.167671 0.305143
432 2 0.685909 0.118385 0.498347
434 1 0.67436 0.143519 0.449857
31 1 0.800454 0.133766 0.255112
78 2 0.80505 0.180025 0.283358
79 1 0.822091 0.166834 0.338172
120 2 0.826863 0.150703 0.432463
149 1 0.976089 0.170642 0.484974
176 1 0.848199 0.099574 0.440574
275 1 0.856669 0.181149 0.473727
482 2 0.955333 0.24315 0.255801
483 1 0.902387 0.225911 0.268647
66 2 0.13119 0.279285 0.326348
196 1 0.0960107 0.319254 0.344008
267 2 0.244776 0.266717 0.43099
330 2 0.0808765 0.455537 0.497184
422 1 0.22534 0.312986 0.457321
451 1 0.174807 0.279838 0.356649
464 2 0.0340215 0.390455 0.375605
466 1 0.0488029 0.409902 0.426504
502 1 0.107632 0.494969 0.328403
21 2 0.432251 0.271081 0.377709
22 1 0.452445 0.289476 0.428461
23 1 0.468508 0.280646 0.328754
228 2 0.497654 0.289413 0.25367
439 1 0.493341 0.486999 0.399657
445 1 0.255914 0.411604 0.342052
449 2 0.295421 0.375834 0.329409
450 1 0.281691 0.32641 0.355163
2 2 0.553119 0.434302 0.293163
89 1 0.658668 0.346866 0.408197
152 1 0.535049 0.361928 0.468419
158 1 0.60674 0.283606 0.370071
351 2 0.741903 0.397359 0.385241
353 1 0.74434 0.381486 0.331438
424 1 0.572066 0.395868 0.337396
506 2 0.604435 0.334979 0.390897
508 1 0.700379 0.476838 0.447965
130 1 0.895138 0.305495 0.457005
299 1 0.892981 0.392274 0.495977
341 1 0.983046 0.368603 0.375751
352 1 0.78858 0.375657 0.405051
461 2 0.876314 0.358651 0.448347
127 1 0.173399 0.693124 0.252172
129 2 0.169064 0.724879 0.344122
140 1 0.207871 0.580907 0.497047
211 1 0.239605 0.550267 0.28737
331 1 0.0892185 0.511397 0.489997
367 1 0.131239 0.641756 0.433701
402 2 0.137889 0.510387 0.283715
429 2 0.121374 0.616949 0.481175
486 1 0.223808 0.729588 0.356006
144 2 0.348007 0.714877 0.255486
167 1 0.340941 0.74199 0.3047
198 2 0.286322 0.57532 0.305445
209 1 0.337787 0.728049 0.455899
288 2 0.400784 0.641219 0.482575
416 1 0.276537 0.586667 0.359295
481 1 0.274708 0.521237 0.490693
499 1 0.489642 0.555183 0.451817
509 2 0.260765 0.572527 0.477796
514 1 0.325067 0.664315 0.259
71 1 0.669449 0.704986 0.495182
111 2 0.745953 0.637194 0.419343
112 1 0.724395 0.594368 0.447062
162 2 0.584889 0.596617 0.287505
165 2 0.632709 0.733576 0.302629
166 1 0.685962 0.719749 0.30997
216 2 0.67306 0.512331 0.485503
227 1 0.578455 0.56881 0.334563
309 2 0.527174 0.521737 0.426787
403 1 0.596399 0.652932 0.290255
456 1 0.621936 0.507342 0.469329
50 1 0.942987 0.61904 0.4747
113 1 0.793458 0.642048 0.446691
417 2 0.897549 0.646774 0.493442
476 2 0.800007 0.599163 0.26146
477 1 0.783664 0.597738 0.317182
13 1 0.0190898 0.804161 0.407451
146 1 0.0847045 0.864852 0.402828
199 1 0.142258 0.762927 0.375739
207 2 0.0725315 0.812404 0.423576
467 2 0.142643 0.966717 0.369222
468 1 0.194207 0.992493 0.379714
469 1 0.137039 0.970717 0.314987
40 1 0.399158 0.85543 0.406403
138 2 0.314391 0.770094 0.428264
139 1 0.291709 0.803591 0.467817
202 1 0.351474 0.986546 0.416056
311 1 0.468003 0.90631 0.376469
389 1 0.379538 0.928917 0.258855
399 2 0.425777 0.904409 0.414472
61 1 0.601929 0.947172 0.380961
321 2 0.65539 0.961249 0.465501
350 1 0.632906 0.76987 0.260103
387 2 0.564384 0.933387 0.340631
388 1 0.590157 0.893499 0.310409
141 2 0.918734 0.793489 0.40303
200 1 0.750377 0.913122 0.39139
223 1 0.902538 0.750352 0.435597
241 1 0.930203 0.99671 0.486441
426 2 0.802764 0.909298 0.371839
452 2 0.874981 0.984726 0.48361
484 1 0.781431 0.977924 0.284733
487 1 0.834185 0.941516 0.408267
496 1 0.967403 0.788509 0.291104
507 1 0.869979 0.817994 0.384102
28 1 0.024157 0.119835 0.662185
101 1 0.135351 0.200285 0.665839
145 1 0.14122 0.197136 0.54425
280 1 0.218599 0.0175883 0.587017
308 1 0.20546 0.0829254 0.525488
408 2 0.136879 0.15614 0.502262
430 1 0.164351 0.0506844 0.680137
455 2 0.242899 0.0435677 0.54227
470 2 0.117544 0.151296 0.695948
471 1 0.146847 0.157126 0.742493
246 2 0.319394 0.0952997 0.722735
282 2 0.33175 0.193494 0.544335
283 1 0.308328 0.142657 0.554726
284 1 0.378797 0.199759 0.57268
290 1 0.33342 0.0482902 0.696569
396 2 0.469376 0.233702 0.634445
74 1 0.746145 0.235197 0.624328
168 2 0.57222 0.0922485 0.614062
170 1 0.619727 0.104245 0.582635
173 1 0.594897 0.0765185 0.705695
296 1 0.739019 0.128991 0.509352
392 1 0.502848 0.190057 0.635776
410 1 0.547777 0.0498648 0.587227
27 2 0.984506 0.0939739 0.63169
29 1 0.972609 0.129892 0.588878
43 1 0.881715 0.0775733 0.643428
132 2 0.944162 0.202576 0.520507
307 1 0.829003 0.215763 0.631109
325 1 0.938715 0.233174 0.73304
390 2 0.784253 0.199952 0.602674
414 2 0.840042 0.0380153 0.650398
415 1 0.793126 0.0695447 0.646951
495 1 0.983436 0.248834 0.547048
1 3 0.0100704 0.424221 0.58564
18 2 0.207896 0.387202 0.529264
19 1 0.158995 0.41618 0.508409
42 2 0.139255 0.3485 0.740293
49 1 0.218752 0.256993 0.605208
83 1 0.0760856 0.29185 0.573287
99 2 0.166085 0.258622 0.620156
110 1 0.188422 0.345202 0.564242
302 1 0.153003 0.319412 0.69108
400 1 0.0996111 0.386381 0.722861
447 2 0.0446986 0.470334 0.679666
491 2 0.0213461 0.311913 0.580075
63 2 0.35463 0.447784 0.526592
100 1 0.479011 0.256276 0.584437
268 1 0.446344 0.354949 0.749659
365 1 0.302951 0.422404 0.527427
372 2 0.435417 0.404068 0.726339
395 1 0.356191 0.475547 0.577037
401 1 0.497465 0.45924 0.647448
406 1 0.471345 0.38105 0.529894
488 2 0.497945 0.337593 0.505066
36 2 0.532214 0.485208 0.61119
197 1 0.582359 0.32773 0.597104
245 1 0.745041 0.431118 0.578586
303 2 0.629488 0.338469 0.624023
304 1 0.629963 0.389849 0.644399
64 1 0.909737 0.403062 0.748991
90 2 0.772197 0.437891 0.626457
182 1 0.83068 0.441795 0.612664
190 1 0.815465 0.301682 0.74198
250 1 0.760024 0.356967 0.699723
286 1 0.96779 0.287791 0.665738
315 2 0.760987 0.317172 0.741491
324 2 0.928509 0.281687 0.705329
360 2 0.904714 0.45349 0.567683
457 1 0.973338 0.471017 0.736079
153 2 0.0676614 0.669726 0.616714
154 1 0.0763296 0.725074 0.618277
186 2 0.183429 0.643593 0.719285
188 1 0.136543 0.653417 0.691066
191 1 0.0968445 0.651483 0.521399
236 1 0.0102731 0.664688 0.626595
343 1 0.194342 0.692214 0.74563
448 1 0.0637612 0.524118 0.678092
24 2 0.345943 0.558117 0.664192
25 1 0.372176 0.522883 0.699323
26 1 0.293958 0.552238 0.681291
136 1 0.43514 0.651125 0.525734
189 2 0.447908 0.649982 0.747845
205 1 0.495794 0.665559 0.636971
206 1 0.495789 0.581729 0.606912
289 1 0.35591 0.615069 0.500349
338 1 0.39656 0.634811 0.726905
38 1 0.565082 0.507082 0.648627
69 2 0.638152 0.721761 0.5396
70 1 0.605672 0.683836 0.560059
159 2 0.733072 0.58248 0.658438
161 1 0.686922 0.583877 0.690424
204 2 0.501701 0.636802 0.589675
239 1 0.73836 0.719729 0.595072
419 1 0.745617 0.527193 0.648291
11 3 0.822732 0.663759 0.710139
37 1 0.906071 0.506754 0.555535
104 1 0.986634 0.635675 0.739379
234 2 0.790071 0.731862 0.611082
285 2 0.920356 0.628564 0.655056
287 1 0.929887 0.573869 0.657757
418 1 0.905814 0.642576 0.54953
97 1 0.0831824 0.858575 0.627868
105 2 0.177265 0.997112 0.668974
169 1 0.126198 0.975371 0.671419
180 2 0.105287 0.835064 0.580746
291 2 0.0150516 0.935952 0.67096
292 1 0.0124334 0.945407 0.727728
293 1 0.00211849 0.984275 0.646084
326 1 0.198302 0.8694 0.556211
391 1 0.0724013 0.849658 0.53768
131 1 0.261903 0.926776 0.713139
177 2 0.256807 0.868287 0.547267
262 1 0.37135 0.839686 0.603842
323 1 0.437803 0.896313 0.631988
333 2 0.297355 0.894374 0.744026
334 1 0.337873 0.874272 0.706311
420 2 0.408573 0.84934 0.646028
463 1 0.268235 0.91934 0.530843
503 2 0.499954 0.967697 0.574461
504 1 0.482854 0.963682 0.520333
84 2 0.624349 0.881312 0.610782
91 1 0.644195 0.955226 0.519189
98 1 0.648173 0.870413 0.662014
155 1 0.622877 0.830249 0.586702
505 1 0.539602 0.929614 0.586083
16 1 0.87515 0.806459 0.730598
210 2 0.841483 0.875608 0.654095
212 1 0.816491 0.922668 0.675141
253 1 0.889259 0.891416 0.63158
347 1 0.783079 0.7851 0.628201
453 1 0.855188 0.993186 0.532503
123 2 0.238422 0.111948 0.860802
187 1 0.209693 0.161885 0.854921
233 1 0.245206 0.11267 0.91875
355 1 0.182181 0.00120779 0.891992
124 1 0.467473 0.173405 0.777707
259 1 0.282792 0.0882316 0.765999
270 2 0.396073 0.111801 0.960001
271 1 0.404531 0.119253 0.903817
305 1 0.407529 0.109824 0.761767
329 1 0.315758 0.213899 0.984734
380 1 0.373556 0.0626603 0.971987
411 2 0.4528 0.122044 0.793208
87 2 0.611848 0.073894 0.759636
88 1 0.567765 0.090512 0.784513
185 1 0.693061 0.118207 0.801883
217 1 0.554494 0.0578132 0.938416
255 2 0.583595 0.148889 0.936758
256 1 0.574992 0.175064 0.985845
257 1 0.585641 0.187954 0.89589
264 2 0.743411 0.141959 0.812675
379 1 0.738458 0.184223 0.850255
500 2 0.553321 0.0013314 0.945407
41 1 0.778193 0.0163608 0.836883
48 2 0.924967 0.151862 0.809313
427 1 0.94957 0.101452 0.806936
443 1 0.992435 0.221908 0.895994
501 1 0.871648 0.13772 0.808923
92 1 0.135955 0.285166 0.820889
126 2 0.146743 0.255882 0.869738
252 2 0.00752529 0.255815 0.938625
254 1 0.0621972 0.267753 0.922686
310 1 0.189913 0.281889 0.898179
342 2 0.00718762 0.475358 0.903556
356 1 0.118595 0.491085 0.792472
118 1 0.467495 0.403927 0.953049
183 2 0.279674 0.25572 0.998703
219 2 0.312843 0.472317 0.815055
220 1 0.309271 0.445423 0.869105
221 1 0.268611 0.455986 0.782682
294 2 0.33037 0.418018 0.947668
362 1 0.319749 0.367522 0.971437
373 1 0.39381 0.421716 0.760473
407 1 0.304154 0.445635 0.990524
20 1 0.545267 0.305492 0.828941
117 2 0.508441 0.372572 0.929754
119 1 0.549364 0.353794 0.967394
142 1 0.731009 0.312624 0.847743
301 1 0.699097 0.311891 0.928579
318 2 0.605788 0.495484 0.872162
320 1 0.575581 0.4654 0.908251
348 2 0.552707 0.262646 0.795667
349 1 0.594393 0.279387 0.758881
393 2 0.743317 0.294321 0.898423
454 1 0.660612 0.478854 0.877634
80 1 0.932202 0.343077 0.941699
86 1 0.844425 0.329994 0.950432
171 2 0.763468 0.487152 0.916821
172 1 0.806673 0.451067 0.91751
249 2 0.885597 0.365402 0.96533
300 2 0.925524 0.453392 0.7675
344 1 0.971671 0.452661 0.864308
15 2 0.158413 0.52021 0.818338
17 1 0.167898 0.564199 0.784642
102 2 0.0130641 0.627438 0.791659
160 1 0.145483 0.607441 0.908104
193 1 0.0372155 0.514648 0.871435
297 2 0.159304 0.644673 0.946569
371 1 0.107785 0.660614 0.963888
52 1 0.442885 0.697954 0.777692
77 1 0.435091 0.637555 0.925822
95 1 0.262001 0.716531 0.840852
203 1 0.315976 0.572396 0.843801
441 2 0.467922 0.655324 0.96727
442 1 0.488701 0.704188 0.950344
444 2 0.320929 0.625061 0.868519
472 1 0.296719 0.616462 0.920288
60 2 0.661271 0.6533 0.896929
62 1 0.712693 0.648851 0.922302
68 1 0.63772 0.601441 0.898882
114 2 0.728262 0.701438 0.775073
115 1 0.689011 0.677644 0.812276
194 1 0.617653 0.736024 0.949731
327 2 0.597308 0.583552 0.750085
332 1 0.549426 0.615446 0.758693
446 1 0.597345 0.547512 0.794979
45 2 0.846909 0.581929 0.806116
46 1 0.882219 0.539011 0.792229
47 1 0.809357 0.550754 0.838578
103 1 0.974795 0.634518 0.833032
147 2 0.797206 0.660144 0.982477
148 1 0.832372 0.615277 0.984651
218 1 0.97312 0.586026 0.980998
225 2 0.996256 0.63697 0.972621
404 1 0.93724 0.731003 0.939071
433 1 0.853045 0.740654 0.942597
516 1 0.761023 0.514083 0.96705
39 2 0.138931 0.810333 0.985799
57 2 0.0752325 0.804327 0.760626
59 1 0.041851 0.758383 0.757131
184 1 0.0460757 0.98971 0.842898
229 1 0.166745 0.78472 0.942355
279 2 0.225757 0.759005 0.826705
354 2 0.152696 0.952655 0.89737
361 1 0.166984 0.922317 0.851293
511 1 0.12643 0.778791 0.777135
518 1 0.142463 0.864282 0.971677
12 2 0.351859 0.969866 0.872489
14 1 0.335867 0.946389 0.82364
281 1 0.259036 0.801597 0.803928
370 1 0.398989 0.996093 0.857672
473 2 0.457715 0.792952 0.815327
474 1 0.498245 0.81777 0.8444
475 1 0.455776 0.825346 0.76812
478 1 0.337111 0.933401 0.971374
33 2 0.560193 0.924874 0.808772
34 1 0.643325 0.971696 0.977811
75 2 0.698565 0.950342 0.977079
116 1 0.711439 0.755507 0.763792
122 1 0.556377 0.945832 0.86316
174 2 0.69405 0.858468 0.762142
175 1 0.641041 0.87084 0.780741
192 2 0.593014 0.779867 0.971435
232 1 0.627667 0.821475 0.96235
266 1 0.520889 0.999449 0.993563
368 1 0.729913 0.894757 0.785524
440 1 0.719626 0.965456 0.927576
462 1 0.578932 0.969721 0.780201
30 2 0.894607 0.926932 0.93485
32 1 0.891581 0.954303 0.980636
72 2 0.776672 0.959862 0.835595
73 1 0.81703 0.940241 0.870016
258 2 0.996982 0.991895 0.813282
260 1 0.9586 0.966517 0.84698
261 2 0.882434 0.7577 0.755377
263 1 0.882886 0.762961 0.812675
384 2 0.896814 0.76143 0.918258
489 1 0.905535 0.873372 0.95025
ITEM: TIMESTEP
10000
ITEM: NUMBER OF ATOMS
518
ITEM: BOX BOUNDS pp pp pp
0.0000000000000000e+00 1.7199999999999999e+01
0.0000000000000000e+00 1.7199999999999999e+01
0.0000000000000000e+00 1.7199999999999999e+01
ITEM: ATOMS id type xs ys zs
58 1 0.237355 0.0784212 0.188067
336 2 0.235638 0.216763 0.0880166
328 1 0.214691 0.215815 0.0345118
272 1 0.251033 0.014249 0.122387
273 2 0.267737 0.0639607 0.143548
238 1 0.36666 0.0867219 0.162472
337 1 0.255033 0.166778 0.0994321
23 1 0.462652 0.203407 0.16675
237 2 0.404818 0.0930705 0.202381
226 1 0.448318 0.0584616 0.187419
266 1 0.465687 0.0747142 0.00953221
500 2 0.513493 0.0684953 0.0419127
405 2 0.607358 0.11922 0.155691
459 1 0.561334 0.0954601 0.128319
217 1 0.553513 0.0784513 0.00441293
465 1 0.7015 0.14114 0.108161
118 1 0.533379 0.234141 0.047265
65 1 0.619876 0.0828229 0.195005
31 1 0.735365 0.0140825 0.245915
137 1 0.927185 0.0990117 0.0288558
498 1 0.982007 0.165558 0.0511053
306 2 0.757278 0.152587 0.101416
35 1 0.778743 0.102105 0.0934239
312 2 0.979455 0.238995 0.148754
512 2 0.868316 0.00653251 0.0507826
135 2 0.969278 0.131984 0.00672103
80 1 0.79162 0.235911 0.0455557
143 1 0.161575 0.272756 0.145315
179 1 0.126359 0.288453 0.227954
277 1 0.101611 0.46862 0.0429509
329 1 0.118351 0.397658 0.153244
313 1 0.0359348 0.252854 0.145242
183 2 0.122811 0.454907 0.152009
108 2 0.12038 0.299416 0.173228
76 1 0.176803 0.467759 0.156248
151 1 0.0434641 0.484369 0.219557
276 2 0.0554123 0.468514 0.0110047
125 1 0.0156869 0.440889 0.0434385
510 1 0.433524 0.287377 0.15213
228 2 0.480537 0.250247 0.147674
335 1 0.304631 0.311769 0.119822
515 2 0.35216 0.34212 0.131697
517 1 0.345447 0.35721 0.18485
407 1 0.408755 0.40378 0.0284882
5 2 0.512241 0.451326 0.135708
3 4 0.565124 0.407169 0.185754
4 2 0.631675 0.36467 0.149065
163 1 0.742707 0.340276 0.175676
94 1 0.706043 0.485598 0.0768761
442 1 0.580106 0.493654 0.0286523
386 1 0.764474 0.25469 0.173193
93 2 0.784288 0.306935 0.189992
314 1 0.956514 0.289485 0.132501
150 2 0.922897 0.396092 0.115528
248 1 0.874982 0.367259 0.133318
295 1 0.946899 0.41663 0.165869
431 1 0.840662 0.457465 0.0572428
402 2 0.99275 0.473109 0.244051
249 2 0.800659 0.284513 0.0183214
231 2 0.788369 0.448756 0.0359955
269 1 0.797133 0.396505 0.0165264
224 1 0.0276275 0.693574 0.19961
394 1 0.0732089 0.629042 0.00577572
385 1 0.168574 0.711248 0.199058
371 1 0.208642 0.638337 0.00784179
134 1 0.247653 0.566069 0.136776
363 2 0.134021 0.685502 0.237438
316 1 0.46062 0.515054 0.10712
297 2 0.258504 0.622434 0.0308119
493 1 0.273114 0.527801 0.216625
96 2 0.283824 0.532211 0.159786
107 1 0.37311 0.54952 0.112334
195 2 0.425083 0.556757 0.0922638
208 1 0.444055 0.608425 0.103657
458 2 0.427684 0.698823 0.170863
460 1 0.390994 0.721639 0.208995
106 1 0.406088 0.716404 0.120581
222 2 0.430296 0.74822 0.00723287
6 2 0.632414 0.572859 0.21518
9 2 0.663737 0.527589 0.0793171
7 4 0.656744 0.603967 0.133745
10 2 0.581535 0.640148 0.0973508
278 1 0.59536 0.661684 0.04774
8 2 0.71902 0.663326 0.129861
350 1 0.502125 0.737592 0.243613
109 1 0.854901 0.552603 0.190864
54 2 0.989716 0.69424 0.159472
51 2 0.869158 0.579244 0.142229
53 1 0.827176 0.605529 0.119945
55 1 0.95996 0.646114 0.175865
319 1 0.931301 0.616302 0.0349191
247 1 0.762004 0.743729 0.0831088
398 1 0.134433 0.926267 0.0690949
369 2 0.188528 0.934015 0.0760707
382 1 0.213937 0.832468 0.100219
397 1 0.0184128 0.959433 0.166242
229 1 0.0231828 0.813143 0.0404888
478 1 0.207337 0.946118 0.0224923
381 2 0.216662 0.776729 0.104327
438 2 0.00426945 0.930662 0.119414
383 1 0.250881 0.754047 0.066692
378 2 0.408244 0.891552 0.0538722
421 1 0.407281 0.933646 0.0162589
298 1 0.431842 0.803508 0.0243243
389 1 0.456237 0.904793 0.0791238
514 1 0.279327 0.791411 0.210103
215 1 0.707903 0.765703 0.207327
156 2 0.678529 0.814148 0.209724
388 1 0.57661 0.969298 0.20578
359 1 0.600023 0.821528 0.130983
357 2 0.579454 0.837938 0.07912
358 1 0.627379 0.854534 0.0537536
213 2 0.731152 0.935336 0.0325688
214 1 0.747995 0.883359 0.0263232
230 1 0.698968 0.955572 0.130136
339 2 0.685978 0.961127 0.185271
387 2 0.522894 0.97668 0.214258
484 1 0.693161 0.905567 0.203593
317 1 0.920346 0.763524 0.17687
494 2 0.891549 0.813842 0.177831
496 1 0.881621 0.820695 0.232806
243 2 0.791795 0.786274 0.0590336
244 1 0.824036 0.801985 0.101171
181 1 0.968816 0.892098 0.139089
513 1 0.820043 0.976929 0.0471712
409 1 0.89865 0.978599 0.0899427
265 1 0.00772668 0.0636539 0.280378
497 2 0.191675 0.114418 0.285348
340 1 0.139871 0.0938684 0.281232
346 1 0.097959 0.130255 0.440504
485 2 0.0452224 0.116392 0.427215
66 2 0.227384 0.188733 0.439313
56 1 0.221975 0.0834508 0.323401
428 1 0.0256412 0.150862 0.380909
377 1 0.149292 0.225969 0.344665
196 1 0.209535 0.243761 0.449744
366 2 0.0509583 0.031772 0.265568
376 1 0.0703182 0.00692673 0.313249
242 1 0.498882 0.192432 0.333434
451 1 0.252395 0.190252 0.386634
128 1 0.408118 0.159946 0.415155
267 2 0.414924 0.196934 0.370825
490 1 0.338875 0.0584207 0.435991
422 1 0.387634 0.243722 0.376263
201 2 0.298305 0.0375321 0.401665
202 1 0.324864 0.00142667 0.369075
85 1 0.539495 0.208207 0.25442
240 2 0.550142 0.195131 0.306985
432 2 0.597223 0.0600937 0.396396
434 1 0.579087 0.103873 0.366188
296 1 0.64753 0.0795468 0.410357
504 1 0.552492 0.0183294 0.488381
435 2 0.967922 0.169462 0.301121
437 1 0.97651 0.204603 0.255743
436 1 0.913948 0.177861 0.311076
251 1 0.780143 0.222763 0.299646
78 2 0.76864 0.0408083 0.284431
79 1 0.775866 0.00505667 0.324642
482 2 0.803799 0.179866 0.329915
483 1 0.785863 0.132264 0.30106
176 1 0.82213 0.0752636 0.466876
275 1 0.776572 0.143801 0.429301
120 2 0.772903 0.101936 0.467299
82 1 0.237584 0.355582 0.274748
375 2 0.142784 0.279214 0.329227
322 1 0.0941184 0.300258 0.35357
464 2 0.0175704 0.366664 0.364217
466 1 0.0416464 0.392554 0.411584
502 1 0.000958177 0.439986 0.292066
330 2 0.0824164 0.433502 0.481808
19 1 0.166222 0.368872 0.498978
331 1 0.095945 0.48756 0.475987
492 1 0.272464 0.426834 0.302911
81 2 0.290215 0.375918 0.284586
44 1 0.343587 0.347407 0.370651
21 2 0.356708 0.338674 0.422501
22 1 0.310277 0.320282 0.447677
450 1 0.350009 0.449129 0.464106
158 1 0.601334 0.282265 0.361249
439 1 0.564642 0.464185 0.479585
89 1 0.67166 0.327284 0.383084
506 2 0.614313 0.336303 0.374348
2 2 0.545577 0.403217 0.271678
424 1 0.582605 0.374669 0.311725
204 2 0.733899 0.497239 0.431128
205 1 0.74973 0.444373 0.415198
341 1 0.970418 0.342438 0.383533
352 1 0.806832 0.362861 0.320391
353 1 0.82338 0.326571 0.406492
351 2 0.787077 0.356104 0.372619
461 2 0.851781 0.288142 0.485047
299 1 0.875437 0.337969 0.497378
211 1 0.193621 0.584322 0.296347
198 2 0.226014 0.540743 0.313631
127 1 0.145546 0.710148 0.286314
367 1 0.170757 0.656551 0.466359
429 2 0.139086 0.614047 0.487548
129 2 0.25175 0.711057 0.399975
416 1 0.252766 0.554503 0.358647
486 1 0.298135 0.724266 0.426393
449 2 0.326828 0.500441 0.469185
403 1 0.478185 0.654346 0.325842
162 2 0.489297 0.599363 0.324035
425 1 0.749943 0.552918 0.262609
164 1 0.507627 0.585074 0.273994
309 2 0.572282 0.531601 0.440249
227 1 0.537257 0.549665 0.40006
499 1 0.622536 0.520899 0.417871
112 1 0.678878 0.674474 0.309659
111 2 0.726739 0.686064 0.336715
121 1 0.780737 0.530785 0.345076
154 1 0.989937 0.732988 0.498695
113 1 0.763256 0.646499 0.32129
423 2 0.795731 0.545635 0.290214
178 1 0.968694 0.555042 0.299757
50 1 0.905676 0.607695 0.452384
476 2 0.941417 0.599299 0.329979
477 1 0.890325 0.605236 0.306995
223 1 0.967296 0.704581 0.345455
417 2 0.867942 0.590787 0.48979
206 1 0.782514 0.512964 0.458897
199 1 0.214918 0.755479 0.409884
469 1 0.120784 0.973633 0.452096
468 1 0.181697 0.993599 0.388397
467 2 0.141513 0.954855 0.403725
146 1 0.116602 0.8512 0.387086
207 2 0.125526 0.794434 0.390868
13 1 0.0751931 0.770023 0.389421
209 1 0.434341 0.758625 0.470753
138 2 0.412553 0.771614 0.4215
166 1 0.495255 0.784708 0.320193
167 1 0.280909 0.764632 0.293417
144 2 0.313639 0.786216 0.255446
311 1 0.368633 0.974908 0.257821
40 1 0.352978 0.893251 0.29257
399 2 0.372502 0.942936 0.304996
139 1 0.388492 0.818671 0.435412
463 1 0.315611 0.919614 0.470162
165 2 0.531808 0.755967 0.286314
157 1 0.646107 0.812976 0.25526
61 1 0.509461 0.941543 0.256835
67 1 0.616056 0.88192 0.393642
321 2 0.606659 0.905392 0.342898
91 1 0.58718 0.955265 0.356702
70 1 0.729232 0.823211 0.445592
241 1 0.989588 0.977895 0.424891
452 2 0.933159 0.974958 0.431741
71 1 0.753924 0.765429 0.383889
141 2 0.975643 0.752121 0.376767
507 1 0.932947 0.788516 0.379328
69 2 0.775511 0.807602 0.417294
200 1 0.832969 0.86162 0.36435
426 2 0.880251 0.878168 0.332785
487 1 0.900263 0.921717 0.362131
453 1 0.923632 0.944415 0.479319
133 1 0.219692 0.135098 0.534615
412 1 0.139922 0.0353053 0.563274
101 1 0.115432 0.195237 0.712713
145 1 0.178846 0.165147 0.604411
408 2 0.207137 0.119213 0.587772
235 1 0.0537932 0.0231472 0.581762
470 2 0.0933075 0.153301 0.743299
28 1 0.0280957 0.105527 0.683229
282 2 0.405284 0.0943599 0.500629
284 1 0.422565 0.0522017 0.532802
280 1 0.29601 0.0915916 0.654286
308 1 0.378986 0.117792 0.688935
455 2 0.342644 0.0752559 0.680657
283 1 0.403645 0.143459 0.528596
396 2 0.42298 0.240676 0.559123
503 2 0.543388 0.00349115 0.541488
410 1 0.610782 0.0455731 0.603212
168 2 0.652304 0.0693538 0.634852
170 1 0.64495 0.124191 0.628074
173 1 0.609498 0.0852408 0.732672
303 2 0.584477 0.247497 0.627993
149 1 0.983819 0.164435 0.500129
27 2 0.995816 0.0784519 0.645697
390 2 0.775371 0.171574 0.618379
132 2 0.955538 0.188518 0.543065
29 1 0.981933 0.124033 0.61496
307 1 0.776729 0.14586 0.568688
74 1 0.82082 0.204897 0.621969
495 1 0.983604 0.235018 0.566127
43 1 0.811622 0.0198238 0.686645
324 2 0.922264 0.240496 0.717741
48 2 0.854208 0.0935825 0.736375
427 1 0.835641 0.143081 0.717847
501 1 0.908854 0.0896115 0.722465
49 1 0.225667 0.261428 0.653017
99 2 0.16993 0.265163 0.647035
1 3 0.0139011 0.41261 0.574061
18 2 0.197417 0.319814 0.50871
83 1 0.0649155 0.294424 0.633789
110 1 0.180005 0.304435 0.561361
302 1 0.151013 0.342222 0.715607
400 1 0.104193 0.422481 0.698042
447 2 0.0538428 0.484541 0.65219
491 2 0.0181211 0.304999 0.606681
481 1 0.190271 0.494471 0.633673
42 2 0.131273 0.391139 0.739632
445 1 0.295708 0.49915 0.516387
100 1 0.39364 0.282858 0.584333
392 1 0.428634 0.264453 0.508645
63 2 0.339122 0.366212 0.608047
365 1 0.288286 0.36601 0.587113
395 1 0.339366 0.374484 0.663756
488 2 0.562987 0.41395 0.517693
508 1 0.736736 0.308527 0.508924
197 1 0.540604 0.260924 0.595603
406 1 0.55037 0.435711 0.570344
152 1 0.622018 0.397014 0.51867
216 2 0.6926 0.338982 0.529406
456 1 0.673885 0.308863 0.575204
304 1 0.573733 0.266727 0.68297
401 1 0.523628 0.468823 0.701228
245 1 0.746902 0.406865 0.603393
36 2 0.5397 0.484438 0.650393
130 1 0.886546 0.250804 0.510481
360 2 0.906517 0.42399 0.532089
90 2 0.77972 0.442617 0.629888
182 1 0.826426 0.441399 0.596662
286 1 0.957984 0.262639 0.679453
250 1 0.818096 0.392975 0.716213
190 1 0.870649 0.320953 0.742856
457 1 0.997242 0.47977 0.734264
37 1 0.897232 0.474018 0.508222
509 2 0.226601 0.530256 0.60733
191 1 0.0925955 0.635271 0.512514
153 2 0.0114544 0.718852 0.548101
448 1 0.0623324 0.537473 0.654012
104 1 0.0159227 0.66057 0.694315
102 2 0.0714186 0.652812 0.705262
59 1 0.155148 0.711094 0.69756
140 1 0.195121 0.559044 0.570736
24 2 0.413422 0.572287 0.59686
25 1 0.395049 0.545134 0.549811
38 1 0.496526 0.518029 0.630879
288 2 0.496801 0.708291 0.547472
289 1 0.495369 0.730675 0.598273
136 1 0.473469 0.659184 0.559918
338 1 0.413882 0.723801 0.712433
26 1 0.36994 0.568294 0.629669
188 1 0.286875 0.682164 0.721921
161 1 0.710397 0.601019 0.694137
446 1 0.619348 0.517522 0.730811
159 2 0.747566 0.609076 0.653228
418 1 0.889353 0.605318 0.537328
236 1 0.971933 0.688288 0.579151
419 1 0.751881 0.556262 0.640077
11 3 0.841964 0.679455 0.685108
285 2 0.917343 0.626156 0.627248
287 1 0.914173 0.573088 0.640148
239 1 0.810105 0.728653 0.535828
345 2 0.0975616 0.993275 0.556804
391 1 0.132047 0.795069 0.547605
97 1 0.128262 0.884061 0.565335
180 2 0.164404 0.839898 0.559678
57 2 0.186742 0.759982 0.698198
511 1 0.173756 0.788234 0.653215
292 1 0.0595338 0.871869 0.664131
291 2 0.00997022 0.88914 0.68366
293 1 0.0114865 0.941469 0.707375
323 1 0.386779 0.94754 0.673011
326 1 0.26523 0.867718 0.514569
189 2 0.460734 0.755472 0.713476
177 2 0.320848 0.875535 0.506063
262 1 0.391596 0.895504 0.605378
420 2 0.424503 0.918738 0.642533
52 1 0.44661 0.808929 0.710055
505 1 0.551236 0.949503 0.54681
475 1 0.527373 0.901766 0.710379
155 1 0.590602 0.796357 0.505185
84 2 0.625165 0.839624 0.502346
98 1 0.643684 0.845212 0.556014
174 2 0.679376 0.852238 0.649416
175 1 0.644462 0.867878 0.691746
368 1 0.702525 0.808091 0.669612
473 2 0.568577 0.911314 0.747855
415 1 0.750116 0.984895 0.634006
414 2 0.801865 0.972723 0.654758
234 2 0.821407 0.751905 0.584187