     518
 i =     5400, time =     2700.000, E =     -3169.7060466112
  P        -0.4106553232        0.9535248288       -1.2006879919
  O        -1.2432160937       -0.4453496461       -0.5708591886
  O         0.5299996006        1.3291677366       -0.0260216475
  O        -1.5422683332        2.0066003975       -1.4093530805
  O         0.3157409631        0.6415183462       -2.5489980836
 Mg         1.0217417730        0.4556670226        1.6853197405
  P        -0.4192795335       -1.8505821357       -0.2579303072
  O         0.3244718297       -1.4260831281        0.9927436495
  O         0.4491489185       -2.1502330404       -1.5449164610
  O        -1.4413312560       -2.9660672382       -0.0220584897
 Mg         0.4227041066       -1.2651459971       -3.4145883131
  O        -4.3382178004        4.7867077896       -6.0761811812
  H        -4.5380441092        5.5873067568       -6.6213617238
  H        -5.0950764887        4.1988992861       -6.3715693248
  O        -4.8148592945       -0.4852092149      -13.2998013340
  H        -4.3371135644        0.1569268998      -13.8896838377
  H        -4.1389223638       -1.2438175527      -13.2296654374
  O         7.1080304919        8.8577676538        4.6127239552
  H         7.9096411990        8.9479247625        5.1216215526
  H         7.1175928424        7.9927900858        4.1320272223
  O        -1.4348097417       -3.0076296166        7.7830535546
  H        -1.0016889822       -3.5631788653        7.0264569358
  H        -0.9645459700       -3.2511746016        8.6095285366
  O         3.4922449674        1.0944113423       -1.1242540379
  H         3.3233875357        0.9147230676       -0.1746287581
  H         3.6529744512        2.0138848932       -1.1868210963
  O         5.8254921095       -9.4085384375        1.3769591527
  H         5.0140848587       -9.0933498342        0.9024890772
  H         5.5413185857       -9.9780393506        2.1443071398
  O        -7.8946598952       -1.8424658742        6.2039249817
  H        -8.8135241935       -1.7400012282        6.4476552503
  H        -7.9368332950       -1.7732476174        5.1976750930
  O         6.0571224489       12.4216600026        6.6722826309
  H         5.5065520024       12.9179987591        7.2967762564
  H         6.6124600272       11.8625288473        7.2982181239
  O        -5.1986809849       -9.8448734169        5.8261099578
  H        -4.2987113641      -10.2239287109        5.9648912990
  H        -5.8430758573       -9.9866595466        6.5867501111
  O        -9.9588681858       -4.5565198247       -6.4660445360
  H       -10.4130395775       -3.6923409209       -6.8029122669
  H        -9.7578171348       -4.2947489520       -5.5258866436
  O        -4.7115433714       -7.5357852896       -7.5624323315
  H        -5.2688387375       -6.9727882569       -8.1761753340
  H        -3.9717271958       -6.9717397562       -7.2484651341
  O        -2.3895279633       -4.0951495018       -2.2103805898
  H        -1.7395250645       -4.6735250574       -2.6543429849
  H        -1.9936541248       -3.6861349492       -1.3538465145
  O        -2.1273681270       -8.0238943465        2.9334525690
  H        -2.1607658681       -8.9198173084        2.4894500992
  H        -2.9181216031       -7.5264841534        2.6761571718
  O         1.9965360251        2.4304213149        9.9196105184
  H         1.1738374031        2.5635286584       10.4818911876
  H         2.3927304895        1.6522162732       10.3577003319
  O        -6.0758793909       -5.6673329014        7.9305691611
  H        -6.0130315129       -4.7059396822        8.0800174096
  H        -7.0214662023       -5.7768659139        7.9011344251
  O         5.0464764565        2.2128128169       -4.7924390498
  H         4.9057477834        2.8939197864       -5.4599408980
  H         4.6655015628        1.4238644189       -5.2020969427
  O         0.2010441088        6.1560811138        1.0791928898
  H         0.1646242227        5.3809786270        0.4651933011
  H        -0.6552068943        6.5579283801        0.8887327316
  O         5.5393613274        2.3889800168        8.6068630447
  H         5.0488374058        2.9837319141        9.2486756967
  H         6.4409672286        2.1727216551        8.9022803208
  O         4.5984468758       -0.3177112254        8.9961404887
  H         4.6005112678        0.6448547553        8.7673780116
  H         5.4554309297       -0.5370219342        9.4715027123
  O        -3.5315423105       -6.3876210444       -0.7407640447
  H        -3.2476074503       -5.6374000387       -1.2920364955
  H        -2.8417764399       -7.0279379023       -0.8954473833
  O         5.0768846641       -7.6455094261       -3.1672650925
  H         4.7750878220       -7.0987932011       -2.4061635490
  H         4.6715351570       -8.4713500621       -3.2524280408
  O        -6.8037684385       -7.0186596782        1.4761508124
  H        -6.9976550755       -7.7699197446        0.9090923062
  H        -5.8261829971       -6.7861728225        1.5558115877
  O         5.3488163931      -11.3524709239       -3.3427725627
  H         4.6118673405      -10.7824599194       -3.5486317650
  H         5.9053540195      -10.9315434980       -2.6242283712
  O        -4.6422260575        3.3390284075        7.6557943191
  H        -5.3501450381        3.6609695490        8.1753029066
  H        -3.7539164610        3.7208376323        8.0175056011
  O        -1.2828600045        1.5187727740        8.0434577158
  H        -2.2028628076        1.2966229517        7.8103895657
  H        -1.1641108054        2.4903240691        7.8263560811
  O        -4.4163796955       -0.5056441383       -6.8917257584
  H        -5.1718848023        0.0602161966       -6.6289044046
  H        -4.1617781658       -0.1414379587       -7.8025251423
  O        -2.0591986669        0.8751144713       -6.2311153850
  H        -2.8398460347        0.2099209041       -6.1176751073
  H        -2.2545180728        1.3242253554       -7.0692430787
  O        -2.4066404755       -9.5610746508       -3.6878148639
  H        -3.1695927007       -8.9418008769       -3.9193568370
  H        -2.7783948757      -10.4384792963       -3.5334751206
  O        -4.5619320805        6.2637423240       -0.3292222372
  H        -5.2052587337        5.5709478705       -0.0071713978
  H        -4.5621007569        6.1946814207       -1.3248230799
  O        -8.7277887941        2.1205297706        5.6422592240
  H        -9.5098851304        1.9434476942        5.0848920062
  H        -7.9883150164        1.4563460911        5.4778036151
  O        -1.7569536929        1.4809151756        4.9680355786
  H        -1.2503473356        2.2210965144        5.2461498895
  H        -2.6961893418        1.8440581715        5.0165549100
  O         6.8052226531      -10.6367519133       -1.2238312727
  H         6.5073516427      -10.4331356087       -0.2860496837
  H         7.6113014812      -11.2913384034       -1.2616196104
  O         2.8800085362        6.6907177544        8.7463125562
  H         3.5771755287        6.0711074185        8.4007022372
  H         2.3866140927        6.2927021698        9.4474501909
  O       -12.3429938394        5.3096814891        7.1630429585
  H       -12.2375427245        6.2527146061        6.8316382672
  H       -12.8318411664        4.7960707303        6.4760952240
  O         0.2549943142       -3.6389981955       -7.1992022191
  H         0.6268543337       -3.0925139355       -6.5012562875
  H         0.9993503440       -4.1413974059       -7.5593485122
  O        -1.5347044799       -9.0261439949       10.6903828421
  H        -1.7337420902       -9.3903586779        9.8123344011
  H        -1.7670453209       -9.5383201284       11.4854981892
  O        -1.6200475543       -1.7899498401       -3.6083189351
  H        -2.3844924448       -1.1484795732       -3.5143274190
  H        -1.9276457865       -2.6805723939       -3.1540672141
  O        -1.5360326451        4.4134918761        8.3700130971
  H        -1.5668364359        4.1178598358        9.3203890482
  H        -1.7430194960        5.4480212302        8.4779281660
  O         7.5449232512       -5.5228067100       -1.5079650346
  H         8.2509709632       -5.4817236352       -0.8319808820
  H         7.7453689965       -6.3799282924       -1.9841587082
  O         4.0989518240       -6.6193492794        6.1073489068
  H         4.9973946633       -6.2462308501        6.2838306887
  H         3.6310421243       -6.3205632465        6.9455051204
  O        -2.8347208176        5.8311984582        5.5864123457
  H        -2.2078401104        6.6114187561        5.4940779569
  H        -3.1905181996        5.7717751103        4.6388058812
  O        -0.5189032152        3.9645997209        5.4958746631
  H        -1.4047205574        4.3186289052        5.8291235356
  H         0.0163425701        3.9319093364        6.2962493148
  O         3.8154577420        4.4498930653        1.4861848888
  H         3.5123622976        5.3555144839        1.6938485238
  H         4.7601282673        4.3430794971        1.3554947215
  O        -9.7859329156       -0.4835394089        1.0411525667
  H        -9.5830500511        0.2699317322        0.4683601234
  H        -8.9625042285       -0.5196171246        1.5757606280
  O         4.2835690738        3.1151439231        5.6207121014
  H         3.4851629733        2.5633709616        5.7343195290
  H         4.8158319891        2.8794412121        6.4207523437
  O       -11.8983360855       -3.4044465833       -1.5232804535
  H       -11.9874649182       -4.3712830993       -1.5074514914
  H       -10.9826162945       -3.0135211197       -1.5771424397
  O         3.3121527076        0.2752591893       -5.7495795184
  H         2.8761520346       -0.1023704680       -4.9786303142
  H         3.7142731034       -0.3079271797       -6.3889847235
  O        -6.0325899126       -6.8889269851       -1.9890536646
  H        -5.7120110363       -7.3078708443       -2.8494944608
  H        -5.2081857176       -6.8006104373       -1.5036957634
  O         5.4326363841        7.9407489990        6.5283637104
  H         4.7218123740        8.5828311048        6.4395184269
  H         5.8874519744        8.1361667906        5.6982558703
  O         9.8667484968       15.9647631189        3.4605608402
  H         9.9326622394       15.1282206953        2.9141487051
  H        10.8677276988       16.2448955083        3.5597080063
  O         4.3674173544        3.4090792148       -2.4984016770
  H         4.7100482053        2.9947991169       -3.3330172075
  H         4.7869765918        4.3002563015       -2.4177595614
  O         0.5752315840       -3.0792748690        3.0585206169
  H         1.4404945197       -3.4472284865        2.7572501640
  H         0.2407947475       -2.5385883148        2.2747308312
  O         5.2185385967       -0.1207489629        2.6767122105
  H         6.0459224196       -0.0795528599        2.1486850294
  H         5.0662147491       -1.0560445217        2.9727834885
  O        -2.5252281633       -5.4012944776       -7.0023818074
  H        -1.5713886106       -5.5753045764       -6.8355955081
  H        -2.5126165307       -4.4713768641       -7.3029511213
  O        -7.2394980704        0.7835080734       -2.0047414610
  H        -7.2410958116        0.0757391239       -2.7217289768
  H        -6.4475168011        1.3596385359       -2.1324298205
  O        -7.1838687257        9.8692904243        4.7576746417
  H        -7.3101853135        9.8517740896        3.7853097301
  H        -7.1334321866       10.7721288336        5.0001648973
  O         8.1619696350        3.5644208487       -6.2416508293
  H         7.3356959753        4.1028951549       -6.2699400075
  H         7.8553150693        2.7085677458       -5.8920703332
  O         4.3841090786       -3.2554819481        8.5221030737
  H         4.1107303957       -2.3817684326        8.2716213208
  H         4.7826727489       -2.9990854747        9.3797528054
  O        -1.3447346283        8.8859444293       -1.4739339574
  H        -1.5616051726        8.4680545749       -2.2952908158
  H        -0.3450341582        8.7961369070       -1.4339947780
  O       -11.2226731517        5.5840236561       -5.8752950783
  H       -12.0987698473        5.3026283159       -6.1897064480
  H       -11.1818141429        5.4956547616       -4.9021595404
  O        -6.8013059942        3.2969504087        3.5531826415
  H        -5.8447487705        3.1441116310        3.7501681274
  H        -7.2620734689        3.1866366413        4.3722340410
  O        -7.5024726267        6.7952464405        7.3473921914
  H        -8.0033681073        6.1774561016        6.8224156013
  H        -8.2703715102        7.2900562758        7.7263234139
  O         4.8749574573       -5.7456303994       11.9957388355
  H         5.1774584613       -6.4621707953       12.6033794067
  H         5.5801731356       -5.5226355085       11.3501927971
  O        -6.3694087576       -3.8615229577       -1.5219900691
  H        -6.8156603130       -3.8693258027       -0.6106490451
  H        -6.5121274046       -4.7984304346       -1.8719753499
  O         1.8145472846        4.4127875541       -2.9980916829
  H         1.4135337328        4.6601675637       -2.1672236781
  H         2.7401064109        4.0861162831       -2.6764490391
  O        -8.9122445388       -4.5203849478        3.2501674797
  H        -9.5726540924       -3.8381133985        3.5146788182
  H        -9.4255951637       -5.3365896931        3.0567110441
  O        -6.4089053087       -1.5821956025       -3.6953560802
  H        -6.6294128448       -2.3034834186       -3.0621304848
  H        -6.3870143539       -1.9371264294       -4.5687030242
  O         6.3882261026        2.0197337902        3.9898864982
  H         5.8045530647        1.2311661457        3.8130026912
  H         5.7967651127        2.4497442544        4.6132799571
  O         9.9710531702        5.3004243969        1.5157732483
  H        10.3460940448        4.6399440378        2.1899509567
  H        10.1704609476        6.1814261546        1.9662813161
  O         1.2849088943        7.6430723876        6.7161886398
  H         1.9786671913        7.2023526400        7.2701801269
  H         1.7419002696        7.7776189039        5.8347272142
  O         2.2056108048       -8.1985737240       -5.3743983326
  H         1.2815352842       -7.8263165457       -5.7375341397
  H         2.8852567077       -7.8881820842       -6.0095710112
  O        11.1986116775        3.4184283424       -0.3836474550
  H        11.8093589628        2.7755703303       -0.7152596688
  H        10.6392485695        3.0783720460        0.3163385678
  O        -6.4503445956        1.2502769667       -5.9616350860
  H        -5.9908695949        1.4394171778       -5.0585655444
  H        -7.3041793615        0.9230022634       -5.7395989773
  O       -11.6362420817       -2.2350065575       -6.4127566257
  H       -11.8531209707       -2.2441175434       -5.4257789766
  H       -10.8953419305       -1.6419200164       -6.6172724423
  O        -4.1408822636       -2.8833876201        4.0871287635
  H        -3.3069667995       -3.4288082524        3.9952533242
  H        -4.9173271522       -3.4241230847        3.9176841518
  O        -1.3088531566        4.2181909110       -6.1185105201
  H        -0.8170280203        3.7023481627       -5.4374971524
  H        -2.2356135683        4.3649048592       -5.8076022071
  O        -2.4203385315        7.2742777292        0.6850687054
  H        -2.1647889453        8.0070237063        0.0168315836
  H        -3.2891957723        6.8646337417        0.3109115361
  O         1.5598964231       -8.4409488752       -0.9249119971
  H         1.8786205201       -9.2650660698       -0.5699307889
  H         2.1308021761       -8.2626255725       -1.7201215456
  O         6.6736460223       -2.6896968341        4.4187830338
  H         6.5228737009       -3.2961767188        5.1403615956
  H         5.7038092691       -2.4791526450        4.0955160716
  O         2.2115737125        2.0853598552        2.6425070194
  H         1.8390766147        2.9407498847        2.9662808416
  H         3.1842489429        2.3052268139        2.5463673908
  O        13.1942122399        5.4384660658        3.0696816511
  H        12.4740933718        6.1552788606        3.0056807944
  H        13.4369645273        5.2223968983        2.1504115068
  O         5.7327987492        0.1281298706       -2.0398519386
  H         6.2257633940        1.0116631985       -2.0934259542
  H         4.8077279901        0.4217493096       -1.7786051913
  O         0.5959696732        2.7849931234       -4.5660827711
  H         1.0816259198        3.4369227310       -3.9629368502
  H         0.3486402336        2.0522717200       -3.9427724236
  O        -1.9286403678       10.6554966760        6.0619786228
  H        -1.9879258295       10.8470146922        7.0082984009
  H        -2.9173219617       10.4516803109        5.8664865146
  O       -16.6232112056       -4.7017214555        5.7017711525
  H       -16.8494002120       -5.5079071817        6.2202938632
  H       -16.7024103396       -4.9738269830        4.7875904186
  O        -4.3498145388       11.0969190788        2.7026622888
  H        -4.6321470364       11.0914905758        3.6233107563
  H        -3.6672457467       11.7863681154        2.7564496742
  O         3.4549781952        4.4393870586       -6.2103665870
  H         2.8792305868        3.8582584458       -6.7986303378
  H         2.8310377009        4.8859360057       -5.6422706228
  O        -7.1901672338       -5.3477706495       -4.9591265967
  H        -6.2079235738       -5.3400734703       -4.8833744507
  H        -7.6065293198       -4.7974003195       -4.2226334353
  O         1.7607298115        2.6442957790        7.0590168588
  H         1.2996382497        1.8471836152        7.3407611223
  H         2.1157233009        3.0133051056        7.8821642137
  O        -3.9957420119        0.8503794812       -0.7894155857
  H        -3.5498731652       -0.0169500687       -0.6453271511
  H        -3.1882382588        1.3580780257       -0.9575662387
  O        -0.0783353319       -6.9556487949       10.7552333097
  H        -0.7668579468       -7.7292999099       10.8101302193
  H         0.2065933295       -6.9717868278        9.8363145597
  O         3.0559382470        7.5311041909       -3.2260201619
  H         2.3555983626        6.8175747370       -3.2370512805
  H         2.7566328444        8.2456617502       -3.9011839534
  O         0.4052733184        0.0270607995        6.1351846014
  H         0.3276157733       -0.9837224095        6.3508120535
  H        -0.5257600039        0.3734252522        6.2700793515
  O         0.7233654340       -4.7918955140       -1.6629661645
  H         0.4385936978       -3.8445325103       -1.5609129101
  H         0.2092138871       -5.3797892588       -1.1138238735
  O        -9.1769740443       -0.8423324140       -7.3946720810
  H        -9.0774954733       -0.1317555098       -8.0747694534
  H        -8.2862626043       -1.2805843991       -7.2486242868
  O        -2.6649339614        2.5636039175       -3.7650103755
  H        -2.3935367259        2.0572446142       -4.5691144355
  H        -2.0724599501        2.3095092002       -3.0265146402
  O        -2.8476096114       -2.6501864422       10.9135612960
  H        -3.4027450909       -1.8169777729       10.7495694925
  H        -2.1108999543       -2.3314016532       11.4435746521
  O         4.9802110350       -1.8088473377       -3.8278879957
  H         5.3223881226       -1.1298528301       -3.2227911407
  H         4.9272585824       -2.6626079161       -3.2371282099
  O         2.2650790166       -2.2785668696        6.6272170217
  H         1.6824638363       -1.8256733918        7.3663670906
  H         1.8220108504       -3.0597516592        6.4167384374
  O         2.0416335120       -4.8359776921        1.1273772287
  H         2.0092250023       -4.0309753867        0.5288834328
  H         1.3121199682       -5.3517793729        0.7153074341
  O         8.1243818891       -3.9342495490       -3.6618125111
  H         7.9077636948       -4.4517120448       -2.8824467117
  H         8.0458977906       -2.9700949830       -3.2410536944
  O        -9.0034110134        1.1994074072       -4.9467219646
  H        -9.4283435913        1.1604323362       -4.0818488704
  H        -9.1501573174        0.2902628360       -5.3703863719
  O         3.7172281297        0.1412228917        5.3777202495
  H         3.1818084285        0.1974754184        4.5425952968
  H         3.1732427207       -0.3263890100        5.9998665301
  O        -7.5115977398        4.8038669259       -4.4067155980
  H        -8.1436422958        4.3990515789       -5.0170766122
  H        -7.3082180077        5.6957309853       -4.8035444542
  O        -0.8346246157       -5.5908792733        0.8613522204
  H        -1.0216791966       -4.6908061899        0.5461074100
  H        -1.7119845499       -6.0176610583        0.8371203896
  O        -6.1563089242       -2.9057718420       -9.0230562064
  H        -6.7452784561       -2.5872796884       -9.7229435959
  H        -5.2224840692       -2.7285342370       -9.2608595115
  O        -4.1712131387        2.9097093027        4.8973138128
  H        -4.4725892457        3.1031366899        5.8418107932
  H        -4.0035306082        3.8431586207        4.4926341759
  O        -6.9320425955       -0.7664467694        0.2038323415
  H        -6.0162801545       -1.0270412322        0.4792350000
  H        -6.9290242957       -0.1884900459       -0.5470291980
  O         4.1731228033        9.5765146712        9.4752453705
  H         3.6609882637        8.8204000927        9.1744975185
  H         4.8339285411        9.2235107135       10.0691378236
  O         1.1558510245        3.9837168230       -0.0210322925
  H         0.9175287704        3.0603678583        0.0567409929
  H         2.0003756618        3.9575282644        0.4016297392
  O         0.3187461610       -6.5146696550        3.3796096557
  H         0.2423879898       -6.1046371442        2.4686335978
  H        -0.4821101771       -7.0262570278        3.3879531942
  O        -3.7975213530       -0.4070149056       -3.6402090496
  H        -4.6225992219       -0.9826451614       -3.5612832461
  H        -3.8756951113        0.3183790431       -3.0059224021
  O        -9.0989436338        1.6504141897        8.4280791822
  H        -8.4748324223        2.2241660419        8.8335636266
  H        -8.9857094164        1.5583775628        7.5036943584
  O        -5.8949318640        7.4361666710        3.2444631547
  H        -5.8921995195        8.1225825889        2.5629515425
  H        -5.9878011129        7.8524828168        4.1441318632
  O        -2.3785664198        3.4288396414        0.5917101149
  H        -2.6847841596        4.2516173209        0.2230752255
  H        -1.8870386096        2.9994654431       -0.1291368058
  O        -1.2993573118        8.0261771202      -10.9922751818
  H        -0.3714860126        7.8978703911      -10.8167757957
  H        -1.4847544427        9.0030932715      -11.0012070674
  O         2.2526957781        8.4413918235        4.4342737619
  H         1.7767882590        9.2278268728        4.0197386665
  H         3.1204007656        8.8312835760        4.5766613660
  O        -9.6541569803        2.1653418056       -2.0866968951
  H        -8.8242728223        1.7801359367       -1.6737066192
  H        -9.6726910468        3.0907386485       -1.7126313295
  O         3.1646761591       -4.3937737343       -3.6136813778
  H         3.3094794558       -4.7063480418       -2.6943922924
  H         3.9046030132       -4.9791471205       -4.0840367724
  O         2.5280874201       -0.8004116789       -3.3310677293
  H         3.4219044113       -1.1364690580       -3.5380878027
  H         2.5777977756       -0.0841544889       -2.6393180818
  O        -2.3028274031        7.0391575598       -8.8037281928
  H        -1.8735774414        7.3421251652       -9.7129632572
  H        -3.2205025504        6.9416078718       -8.9818323241
  O        10.7449096764        7.0887729840       11.8959263954
  H        10.8424833219        6.9052237121       10.9192115748
  H        10.2291151068        7.9413354490       11.9371001683
  O         6.4919663566       -8.7060960808       -5.8807649207
  H         6.2520894137       -9.6142695536       -5.7409402592
  H         7.1861809311       -8.4897042246       -5.2364329899
  O         0.8281628480       -7.0168123842        7.6675611342
  H         1.6519045025       -6.5274210548        7.8886322122
  H         1.1157408785       -7.9331049566        7.3877667642
  O         1.0990711092      -11.1897349712       -6.1640518179
  H         1.0778239977      -10.2686466448       -5.8102895710
  H         0.2297119094      -11.6324210995       -6.1242192134
  O         7.6480541570       -1.8279258146       -1.9182231197
  H         6.8394396822       -1.2454953416       -1.8106696640
  H         8.1637352034       -1.7501422718       -1.0649753478
  O         2.5428592284       -5.2323715282       -8.4175267631
  H         3.0077953472       -5.6847982772       -7.7198511391
  H         3.1748316828       -4.5514103297       -8.6390315929
  O        -8.3510571435       -7.8625646660       -5.0859144291
  H        -7.8432473637       -6.9904140871       -5.1906616908
  H        -8.2547537746       -8.0176926349       -4.1419267303
  O        -9.1715084089       11.1070787014       -8.7834770172
  H        -9.3693384257       11.4740891219       -7.8607469610
  H        -9.4255994270       10.2007198615       -8.8940506120
  O         9.2068804854        5.0216730046       -1.5036533903
  H        10.0085929635        4.6137162876       -1.0987984407
  H         9.3446478286        4.9669682288       -2.4471122815
  O        -0.6597968363        1.3585186865        2.3594652247
  H        -1.1976829704        1.2541112283        3.1496184336
  H        -1.1291345761        1.9059282658        1.6940855170
  O         3.4957929313       11.9098806248        3.4232294555
  H         3.3334191698       11.7839224707        4.4268847712
  H         2.7635491898       11.6076738659        2.8431782145
  O         4.0005577076        6.4661733269        4.5073133446
  H         3.6075933275        5.8270827623        3.8709144737
  H         4.9009018188        6.1968827089        4.4326213835
  O         7.9830113633        4.8245839451        6.2365621830
  H         8.3281931426        3.9683193142        5.9901703440
  H         7.0309784875        4.6265427974        6.5997446173
  O       -10.2876467650       -0.7784226487        6.7466492207
  H       -10.7664685524       -0.9571755369        5.9103392032
  H       -10.9814362086       -0.7258003673        7.4313593527
  O        -7.3781472062        8.1870297516       -0.1769441333
  H        -7.1553956455        7.2085320380       -0.1886386683
  H        -6.7414099478        8.6330049867       -0.8045176940
  O        -0.6523280709       -5.6422566401       -3.9302036953
  H         0.1077558310       -5.6530429317       -3.2348018216
  H        -0.2820974226       -5.9695310179       -4.7570086939
  O         2.6011292058      -10.0877866415        1.7451631546
  H         1.7172158411      -10.2122837758        1.3558211416
  H         2.4434140112       -9.9735577352        2.7170291156
  O        -4.2283323292       -4.7819136789       -4.6283667573
  H        -3.7926599842       -4.2122644320       -5.3798196091
  H        -3.9954963955       -4.4446454177       -3.7888512691
  O         0.2573685194       -0.4260836126       -5.3259440371
  H        -0.5083593374        0.0473134239       -5.7665205784
  H         1.0138635342       -0.2801138482       -5.9011174413
  O        -1.9561050896       -4.5689751873        3.7079048400
  H        -1.6270733225       -4.9178618590        4.6059596354
  H        -1.1623290264       -4.1416119012        3.2345218328
  O         4.1123877604       14.5347713560        3.7429453446
  H         4.0021377007       13.5314856285        3.6886573052
  H         3.6117485187       14.8200327871        4.5055400796
  O        -4.3541089952       -2.1450588551        0.2363340571
  H        -4.4933155287       -2.7291606970       -0.4694674260
  H        -3.3909582301       -2.2812543022        0.5436221444
  O         1.1967734627        4.4309443824        3.3652508323
  H         0.3915269153        4.1486918661        3.9179528106
  H         0.7109638756        4.9241223878        2.6535230540
  O         1.3291083388       -0.3761504813        3.6311883432
  H         0.9552659283       -0.1186138942        4.5468168842
  H         0.9600550841       -1.2923820847        3.5574416208
  O         4.3929328140       -5.9702008799       -0.9815206062
  H         3.4800450109       -5.8550891357       -0.8615186771
  H         4.7250843691       -5.8602508624       -0.0747536669
  O        -7.8043799236        1.7995501980        1.3313953211
  H        -7.3162151138        0.9627217229        1.2052968165
  H        -7.3482808596        2.1416470339        2.1030735033
  O        -4.1333372236        5.1969481982       -3.2053061211
  H        -4.4489443700        5.2370832904       -4.1625343847
  H        -3.4033328991        4.5105546807       -3.2799978014
  O        10.6265245614       -4.1854549733        4.6454865917
  H        10.3817681253       -3.6935542839        5.4740901886
  H         9.7999958913       -4.3840927000        4.1005212773
  O        -7.0218241202       14.8292880426       -6.4773873565
  H        -6.4852360698       14.8333037720       -7.2481827595