 #   Built with Packmol
  
         518  atoms
           4  atom types
 
      0.000000000000      17.200000000000  xlo xhi
      0.000000000000      17.200000000000  ylo yhi
      0.000000000000      17.200000000000  zlo zhi
 
Masses
 
            1   1.00800000              # H
            2   15.99900000             # O
            3   24.30500000             # Mg
            4   30.97376200             # P
 
Atoms # atomic
 
         1    4       -0.793053000000      -0.403879000000       0.023974000000
         2    2        0.398508000000      -1.479492000000       0.132574000000
         3    2       -0.391038000000       1.099907000000       0.179202000000
         4    2       -1.875211000000      -0.635496000000       1.128450000000
         5    2       -1.601352000000      -0.450008000000      -1.317506000000
         6    3       -2.459053000000       0.972305000000      -0.077116000000
         7    4        1.931088000000      -1.430807000000      -0.354470000000
         8    2        2.920926000000      -0.733335000000       0.639482000000
         9    2        2.201694000000      -0.726026000000      -1.725018000000
        10    2        2.519714000000      -2.868326000000      -0.531808000000
        11    3        4.003777000000      -1.460843000000      -0.972763000000
        12    2       10.146589000000      17.127394000000       0.153563000000
        13    1       10.314752000000      16.184308000000       0.179747000000
        14    1        9.191259000000      17.199484000000       0.130685000000
        15    2        6.071547000000       2.136745000000       0.817853000000
        16    1        5.424998000000       2.374723000000       1.483973000000
        17    1        5.573366000000       2.110269000000      -0.000371000000
        18    2       14.484780000000      16.829742000000      10.796644000000
        19    1       13.625107000000      16.488228000000      11.047054000000
        20    1       14.348980000000      17.203503000000       9.924729000000
        21    2        7.076759000000       7.084400000000      10.314711000000
        22    1        6.136121000000       7.250986000000      10.238398000000
        23    1        7.140898000000       6.140540000000      10.467649000000
        24    2        8.865306000000       7.357656000000       7.623397000000
        25    1        8.025016000000       7.058220000000       7.973577000000
        26    1        9.330316000000       6.551395000000       7.395178000000
        27    2        7.163296000000      14.403271000000       9.892482000000
        28    1        6.576076000000      14.906146000000       9.326209000000
        29    1        6.689835000000      14.329049000000      10.722362000000
        30    2       14.521474000000       8.344844000000       8.596919000000
        31    1       14.563032000000       9.275770000000       8.820580000000
        32    1       13.618906000000       8.209064000000       8.304837000000
        33    2        7.940073000000       1.666256000000      10.269971000000
        34    1        7.215228000000       1.727795000000      10.893820000000
        35    1        8.519567000000       0.999575000000      10.641588000000
        36    2        8.672777000000       5.110656000000       8.990904000000
        37    1        9.105455000000       4.313888000000       9.301268000000
        38    1        9.102324000000       5.819186000000       9.472412000000
        39    2        2.894454000000       4.546089000000       6.324466000000
        40    1        3.129830000000       3.970729000000       5.595128000000
        41    1        3.713416000000       4.667864000000       6.807009000000
        42    2        4.698554000000      10.339594000000       3.622760000000
        43    1        4.698677000000      10.789743000000       2.776746000000
        44    1        5.619282000000      10.329211000000       3.888331000000
        45    2       11.609485000000       5.412761000000      15.842695000000
        46    1       11.773589000000       6.103721000000      16.486138000000
        47    1       12.038925000000       5.722744000000      15.044029000000
        48    2       11.489862000000       7.189142000000       7.284215000000
        49    1       11.714941000000       8.117389000000       7.206289000000
        50    1       12.335496000000       6.738629000000       7.301987000000
        51    2        7.818521000000      10.229905000000      10.812155000000
        52    1        7.529510000000       9.317500000000      10.860798000000
        53    1        8.731960000000      10.176623000000      10.527261000000
        54    2        9.633664000000      14.126960000000       2.341697000000
        55    1       10.465420000000      13.747520000000       2.629070000000
        56    1        9.867208000000      14.998486000000       2.018781000000
        57    2       10.590981000000       7.976816000000       5.248610000000
        58    1       11.062520000000       7.348650000000       4.699580000000
        59    1        9.777920000000       7.526809000000       5.482706000000
        60    2        0.863660000000      15.040596000000       1.590453000000
        61    1        0.746957000000      14.974761000000       0.641547000000
        62    1        0.004447000000      15.309184000000       1.919070000000
        63    2       11.912010000000       0.852594000000       8.673063000000
        64    1       11.388800000000       0.459990000000       9.373412000000
        65    1       11.593129000000       0.433341000000       7.872490000000
        66    2       17.143515000000       0.814594000000       9.035550000000
        67    1       17.021616000000       0.091054000000       9.651996000000
        68    1       16.352139000000       0.804367000000       8.495185000000
        69    2        9.425260000000       6.871173000000      11.429994000000
        70    1        9.113962000000       7.776539000000      11.387787000000
        71    1       10.373967000000       6.938704000000      11.312647000000
        72    2        1.439981000000       2.529339000000      15.716630000000
        73    1        0.846655000000       2.483975000000      16.467816000000
        74    1        1.233783000000       3.366952000000      15.299181000000
        75    2       13.073237000000      13.943288000000      16.629291000000
        76    1       13.292137000000      14.645121000000      17.244017000000
        77    1       12.171666000000      13.704713000000      16.849806000000
        78    2        4.366844000000       2.476410000000      10.376954000000
        79    1        5.305496000000       2.669066000000      10.390794000000
        80    1        3.978720000000       3.136108000000      10.953612000000
        81    2        0.859912000000       3.959951000000       3.081418000000
        82    1        1.699624000000       4.414031000000       2.997329000000
        83    1        0.859521000000       3.621893000000       3.978130000000
        84    2        6.472322000000       0.786419000000       3.454987000000
        85    1        5.877769000000       0.035430000000       3.425036000000
        86    1        7.346128000000       0.403494000000       3.364400000000
        87    2        9.327710000000       0.135910000000       8.635968000000
        88    1        9.448825000000       1.085300000000       8.587326000000
        89    1        8.381278000000       0.020113000000       8.732051000000
        90    2       15.391135000000       1.547072000000      11.247023000000
        91    1       15.175125000000       2.320011000000      11.770739000000
        92    1       14.644050000000       1.442116000000      10.656071000000
        93    2       15.520275000000      12.321403000000      12.924350000000
        94    1       16.267028000000      12.398301000000      13.520019000000
        95    1       15.835719000000      11.757147000000      12.216901000000
        96    2        8.899945000000       9.709406000000       8.309162000000
        97    1        9.528522000000      10.423544000000       8.193956000000
        98    1        8.044759000000      10.141855000000       8.313639000000
        99    2       11.695655000000       4.565455000000      12.543098000000
       100    1       12.066100000000       5.375971000000      12.190664000000
       101    1       11.165773000000       4.213209000000      11.826493000000
       102    2        3.868107000000       2.071384000000      14.451977000000
       103    1        4.553437000000       1.401836000000      14.472050000000
       104    1        4.344373000000       2.898738000000      14.368123000000
       105    2       10.996852000000       1.970566000000       5.665123000000
       106    1       11.324452000000       1.313676000000       5.049048000000
       107    1       10.050109000000       1.824146000000       5.689902000000
       108    2       15.176553000000      13.666921000000       1.651351000000
       109    1       15.430147000000      12.916931000000       1.111369000000
       110    1       14.740538000000      13.278174000000       2.411050000000
       111    2        5.910456000000      15.570100000000       7.300530000000
       112    1        6.166431000000      14.979142000000       6.590868000000
       113    1        6.521860000000      16.304875000000       7.232217000000
       114    2       16.058314000000      10.969395000000      10.137546000000
       115    1       16.474895000000      10.216843000000       9.715050000000
       116    1       15.207826000000      10.638807000000      10.430387000000
       117    2       16.659273000000       8.407968000000      13.618021000000
       118    1       17.129004000000       8.544844000000      14.442031000000
       119    1       17.255937000000       8.738355000000      12.944812000000
       120    2       12.640598000000       4.725511000000       1.522112000000
       121    1       13.356621000000       4.101707000000       1.393451000000
       122    1       13.076072000000       5.574551000000       1.610813000000
       123    2        7.994493000000       3.063316000000       5.233947000000
       124    1        7.412902000000       3.661549000000       4.762520000000
       125    1        8.065972000000       2.298295000000       4.661226000000
       126    2        3.769274000000       9.310723000000       5.819792000000
       127    1        4.374073000000       8.697187000000       5.400069000000
       128    1        2.898519000000       8.986427000000       5.585286000000
       129    2       16.265020000000       3.060494000000       5.607650000000
       130    1       15.446314000000       3.511358000000       5.819354000000
       131    1       16.308256000000       2.336469000000       6.233984000000
       132    2        7.491593000000       8.625142000000       5.433547000000
       133    1        7.873790000000       8.898116000000       6.268883000000
       134    1        7.669444000000       9.355461000000       4.839092000000
       135    2        9.926736000000       6.164106000000       2.543975000000
       136    1        9.492359000000       6.369971000000       1.714932000000
       137    1       10.853946000000       6.341060000000       2.378612000000
       138    2        1.206295000000       0.696402000000       6.825839000000
       139    1        1.432710000000       0.279615000000       7.658545000000
       140    1        2.044210000000       1.003027000000       6.476188000000
       141    2       11.295458000000       4.079509000000       8.880426000000
       142    1       12.095682000000       3.870143000000       8.396501000000
       143    1       11.062033000000       3.261635000000       9.321981000000
       144    2       14.311122000000       2.598109000000       3.355083000000
       145    1       14.169263000000       2.236909000000       2.478849000000
       146    1       13.644749000000       3.281183000000       3.443007000000
       147    2        5.849507000000      14.260191000000      15.415357000000
       148    1        6.585357000000      13.786288000000      15.805634000000
       149    1        5.514199000000      14.808606000000      16.126121000000
       150    2       13.570341000000      11.917620000000      15.676145000000
       151    1       13.977851000000      11.967152000000      16.542089000000
       152    1       13.689020000000      11.005340000000      15.407752000000
       153    2        2.750288000000       6.515473000000       3.623796000000
       154    1        3.398048000000       6.058722000000       4.162463000000
       155    1        2.818302000000       7.432409000000       3.893939000000
       156    2        5.586902000000       7.305780000000       3.307505000000
       157    1        6.283459000000       7.935128000000       3.500131000000
       158    1        4.824325000000       7.848501000000       3.101825000000
       159    2        9.216925000000       4.355232000000      13.922956000000
       160    1       10.116084000000       4.087978000000      14.119082000000
       161    1        9.308310000000       5.014365000000      13.233342000000
       162    2       13.012128000000      10.833688000000       6.373692000000
       163    1       12.400961000000      10.153819000000       6.661142000000
       164    1       13.750363000000      10.763895000000       6.980745000000
       165    2        8.802949000000       0.588110000000       1.246725000000
       166    1        9.561361000000       0.002389000000       1.235909000000
       167    1        8.046403000000       0.000285000000       1.224936000000
       168    2        1.487104000000      11.182541000000       9.025533000000
       169    1        0.832282000000      10.660709000000       9.491660000000
       170    1        1.175722000000      12.085207000000       9.106849000000
       171    2        5.017053000000       8.700517000000      16.096593000000
       172    1        4.348418000000       8.365500000000      15.497372000000
       173    1        5.759487000000       8.105214000000      15.983541000000
       174    2        7.959288000000      16.584555000000       9.674415000000
       175    1        7.750252000000      17.142461000000      10.425028000000
       176    1        8.890698000000      16.741064000000       9.512072000000
       177    2       14.456000000000       1.728371000000       7.235795000000
       178    1       14.094308000000       1.893195000000       6.363793000000
       179    1       14.573946000000       2.600689000000       7.614642000000
       180    2        5.558046000000       8.038474000000       8.273691000000
       181    1        6.068884000000       8.554267000000       7.648089000000
       182    1        5.030533000000       8.686163000000       8.743377000000
       183    2        3.758764000000      10.349342000000      10.100666000000
       184    1        3.377685000000      11.221947000000      10.208899000000
       185    1        4.460515000000      10.312285000000      10.752240000000
       186    2       12.806340000000      12.406400000000      13.446891000000
       187    1       13.210661000000      11.545514000000      13.329525000000
       188    1       11.872087000000      12.219785000000      13.550441000000
       189    2        1.525284000000      15.305256000000      15.769259000000
       190    1        1.668972000000      14.386271000000      15.538619000000
       191    1        1.884590000000      15.388905000000      16.653724000000
       192    2        9.808202000000       4.224245000000       4.834739000000
       193    1       10.200616000000       4.619593000000       5.614538000000
       194    1       10.259083000000       4.644386000000       4.100869000000
       195    2       10.100360000000       3.831320000000       0.376335000000
       196    1       10.920394000000       3.512437000000      -0.003444000000
       197    1       10.375134000000       4.460196000000       1.045206000000
       198    2       11.402215000000       1.376351000000      16.194147000000
       199    1       11.489683000000       0.441458000000      16.385719000000
       200    1       11.219962000000       1.778765000000      17.044572000000
       201    2        5.643015000000       2.832110000000       6.037160000000
       202    1        6.340081000000       3.016637000000       6.668368000000
       203    1        5.859945000000       1.966659000000       5.687429000000
       204    2        8.123749000000      16.037027000000      17.196942000000
       205    1        8.067029000000      15.151124000000      16.835922000000
       206    1        7.238892000000      16.391978000000      17.099920000000
       207    2        5.548460000000      12.088916000000      12.727060000000
       208    1        5.345986000000      11.165160000000      12.571962000000
       209    1        4.742762000000      12.451325000000      13.098390000000
       210    2       15.033159000000       8.188807000000      11.329931000000
       211    1       15.856525000000       7.746957000000      11.117299000000
       212    1       15.270861000000       8.825359000000      12.005709000000
       213    2       14.396567000000       5.871064000000      16.234791000000
       214    1       13.755135000000       5.161906000000      16.298310000000
       215    1       13.884046000000       6.669809000000      16.367848000000
       216    2        4.094637000000      16.156754000000       9.578515000000
       217    1        4.818425000000      16.026023000000      10.192857000000
       218    1        4.089649000000      17.100496000000       9.412076000000
       219    2       12.372799000000       4.036244000000       5.687534000000
       220    1       13.282920000000       3.765564000000       5.557969000000
       221    1       12.431134000000       4.810260000000       6.249558000000
       222    2        4.835880000000      16.119666000000      12.418014000000
       223    1        4.636747000000      17.036613000000      12.223258000000
       224    1        3.980604000000      15.687746000000      12.436003000000
       225    2        9.559107000000      14.348189000000      11.386422000000
       226    1        9.750075000000      14.473891000000      12.317070000000
       227    1        9.536011000000      15.235441000000      11.025001000000
       228    2        1.408258000000       4.639867000000      12.315336000000
       229    1        1.935858000000       5.286874000000      12.785863000000
       230    1        2.050960000000       4.050455000000      11.917967000000
       231    2       15.023867000000      15.049126000000      11.972837000000
       232    1       14.195564000000      14.567306000000      11.960990000000
       233    1       15.658037000000      14.425899000000      12.330318000000
       234    2        0.603966000000       9.475272000000       4.791940000000
       235    1        0.042316000000       8.845702000000       5.246435000000
       236    1       -0.007245000000      10.053342000000       4.332994000000
       237    2       16.046201000000       6.032255000000       2.589984000000
       238    1       15.721910000000       6.864264000000       2.242176000000
       239    1       15.255434000000       5.514217000000       2.747147000000
       240    2        3.838540000000       3.217676000000       2.805547000000
       241    1        4.598064000000       3.486727000000       3.324306000000
       242    1        3.761242000000       2.275926000000       2.965257000000
       243    2       16.819796000000      16.394611000000      14.227059000000
       244    1       16.948889000000      15.523466000000      14.604970000000
       245    1       17.091626000000      16.301439000000      13.312836000000
       246    2        8.379809000000       2.722080000000       7.538771000000
       247    1        7.947838000000       2.683064000000       8.393320000000
       248    1        8.392773000000       3.654923000000       7.319659000000
       249    2       13.879839000000      16.042937000000      15.369778000000
       250    1       14.420740000000      15.264447000000      15.510331000000
       251    1       12.984490000000      15.705569000000      15.315848000000
       252    2        6.295437000000      11.750978000000       9.791560000000
       253    1        6.429517000000      11.940088000000      10.721418000000
       254    1        5.585021000000      12.337742000000       9.528135000000
       255    2       12.983106000000      -0.052641000000       4.699131000000
       256    1       13.070208000000       0.126935000000       5.636436000000
       257    1       13.514792000000       0.622939000000       4.275719000000
       258    2       12.037684000000      16.259633000000       6.911864000000
       259    1       11.790186000000      17.151054000000       7.161843000000
       260    1       12.934433000000      16.343276000000       6.584422000000
       261    2        1.355487000000       8.867471000000       0.002252000000
       262    1        1.257687000000       7.914158000000      -0.000085000000
       263    1        2.303028000000       9.010716000000       0.006976000000
       264    2        5.660092000000       4.149936000000      12.656708000000
       265    1        4.726858000000       4.344561000000      12.754536000000
       266    1        5.691776000000       3.206196000000      12.493231000000
       267    2       14.637947000000       8.789938000000      14.225764000000
       268    1       15.087556000000       9.618400000000      14.398617000000
       269    1       13.763207000000       8.910248000000      14.598231000000
       270    2        3.233169000000       5.770367000000       1.467736000000
       271    1        3.501828000000       4.886890000000       1.211480000000
       272    1        2.280274000000       5.769601000000       1.365923000000
       273    2        1.862313000000       6.787457000000      10.519452000000
       274    1        2.270172000000       5.936236000000      10.685132000000
       275    1        2.594407000000       7.405787000000      10.510438000000
       276    2        3.913837000000      17.048362000000      14.643793000000
       277    1        4.740781000000      16.596499000000      14.818032000000
       278    1        3.238692000000      16.403854000000      14.860963000000
       279    2       15.902516000000      11.195736000000       3.480370000000
       280    1       15.961505000000      11.178503000000       2.524023000000
       281    1       14.993507000000      11.440601000000       3.659589000000
       282    2       14.389464000000       4.544530000000      13.131278000000
       283    1       15.294379000000       4.247864000000      13.024072000000
       284    1       14.255085000000       5.166342000000      12.414571000000
       285    2        1.533706000000      15.823227000000       4.958698000000
       286    1        1.200839000000      14.934957000000       5.094903000000
       287    1        1.873305000000      15.816632000000       4.062593000000
       288    2        3.743295000000       6.223805000000      16.168066000000
       289    1        3.295844000000       5.756459000000      16.874996000000
       290    1        3.094653000000       6.270620000000      15.464186000000
       291    2        8.666534000000      15.820094000000      14.801041000000
       292    1        8.582055000000      16.589984000000      14.236676000000
       293    1        9.610823000000      15.721413000000      14.931261000000
       294    2       15.993284000000       5.995377000000      14.638863000000
       295    1       16.870303000000       6.377920000000      14.692473000000
       296    1       15.544976000000       6.517396000000      13.971862000000
       297    2        0.841414000000       3.778014000000       6.278182000000
       298    1        0.003556000000       4.088514000000       6.624532000000
       299    1        0.830131000000       2.832898000000       6.436309000000
       300    2        8.178890000000      15.590056000000       5.777496000000
       301    1        9.094181000000      15.871421000000       5.739385000000
       302    1        8.223696000000      14.633151000000       5.803960000000
       303    2       10.587298000000      11.223579000000      11.062197000000
       304    1       11.436124000000      11.219568000000      11.507003000000
       305    1       10.751531000000      11.683355000000      10.237571000000
       306    2       13.280192000000      16.647798000000       2.366773000000
       307    1       12.975917000000      15.749229000000       2.231253000000
       308    1       12.478251000000      17.172249000000       2.381481000000
       309    2        1.873070000000       2.566294000000      10.046812000000
       310    1        1.645762000000       1.880836000000      10.676775000000
       311    1        1.028559000000       2.884594000000       9.724538000000
       312    2        3.591378000000       2.379414000000       8.173938000000
       313    1        2.930963000000       3.073756000000       8.163099000000
       314    1        4.428657000000       2.845426000000       8.160874000000
       315    2       11.899533000000      14.164791000000      11.958814000000
       316    1       11.711933000000      14.921669000000      11.401753000000
       317    1       11.625855000000      13.409511000000      11.436293000000
       318    2       12.902277000000      15.540536000000       9.190377000000
       319    1       12.206390000000      14.883515000000       9.140989000000
       320    1       12.439695000000      16.379799000000       9.184865000000
       321    2       10.403211000000      12.499480000000      15.813182000000
       322    1       10.398597000000      11.805012000000      15.152827000000
       323    1       10.723259000000      12.071199000000      16.608493000000
       324    2        9.777959000000       0.065003000000       4.059969000000
       325    1        9.619218000000       0.940896000000       3.705022000000
       326    1        9.181226000000      -0.002214000000       4.806807000000
       327    2       16.652859000000       5.620004000000       6.848994000000
       328    1       17.181908000000       6.405639000000       6.994801000000
       329    1       17.119521000000       5.141411000000       6.162299000000
       330    2        2.555980000000      11.214541000000       4.185424000000
       331    1        2.511987000000      10.316353000000       3.854216000000
       332    1        1.642557000000      11.502638000000       4.217597000000
       333    2        2.409105000000      13.619404000000       3.809180000000
       334    1        1.633482000000      13.464990000000       3.267940000000
       335    1        3.032318000000      14.044662000000       3.218302000000
       336    2        6.990776000000      10.916027000000       6.239732000000
       337    1        6.173580000000      10.469016000000       6.014460000000
       338    1        6.805879000000      11.843849000000       6.086975000000
       339    2        3.681167000000       0.040205000000       8.450392000000
       340    1        4.181516000000       0.291145000000       9.228245000000
       341    1        4.330653000000       0.014496000000       7.746203000000
       342    2        6.343005000000      12.035159000000       0.945084000000
       343    1        5.893138000000      12.317187000000       1.742866000000
       344    1        6.501583000000      11.099438000000       1.077954000000
       345    2        7.145840000000      15.395466000000      12.777017000000
       346    1        7.069658000000      16.331089000000      12.584196000000
       347    1        6.831169000000      15.310559000000      13.678210000000
       348    2        6.905720000000       1.070372000000       7.536939000000
       349    1        6.280236000000       1.431737000000       8.166670000000
       350    1        6.421057000000       0.374235000000       7.090991000000
       351    2       12.011778000000       7.912023000000      13.616012000000
       352    1       11.616026000000       8.085255000000      14.471433000000
       353    1       12.056696000000       8.771607000000      13.194736000000
       354    2        6.147838000000       4.068847000000       8.731063000000
       355    1        6.504281000000       4.687852000000       8.092192000000
       356    1        6.730284000000       4.144649000000       9.488286000000
       357    2        9.113455000000      12.943344000000      13.773259000000
       358    1        8.439992000000      12.670066000000      14.397872000000
       359    1        8.869930000000      12.509848000000      12.954020000000
       360    2       13.056678000000      10.401518000000       9.987259000000
       361    1       12.530989000000       9.753605000000       9.515841000000
       362    1       12.986926000000      11.197201000000       9.457733000000
       363    2       16.343785000000      12.471035000000       6.614216000000
       364    1       15.569831000000      11.936982000000       6.429398000000
       365    1       16.825930000000      11.972642000000       7.275666000000
       366    2       16.502717000000      10.166149000000       5.430934000000
       367    1       16.892899000000       9.392283000000       5.021954000000
       368    1       17.199185000000      10.824106000000       5.410921000000
       369    2        5.559516000000      16.627225000000       1.859466000000