 #   Built with Packmol
  
         518  atoms
           4  atom types
 
      0.000000000000      17.200000000000  xlo xhi
      0.000000000000      17.200000000000  ylo yhi
      0.000000000000      17.200000000000  zlo zhi
 
Masses
 
            1   1.00800000              # H
            2   15.99900000             # O
            3   24.30500000             # Mg
            4   30.97376200             # P
 
Atoms # atomic
 
         1    4       -0.989718000000      -0.208301000000       0.042784000000
         2    2        0.680057000000      -1.069947000000       0.063856000000
         3    2       -0.485817000000       1.160145000000       0.609940000000
         4    2       -1.929912000000      -1.010953000000       0.843425000000
         5    2       -1.149143000000      -0.179211000000      -1.513380000000
         6    3        1.316114000000       0.712344000000       0.943832000000
         7    4        2.490466000000      -1.242470000000      -0.388655000000
         8    2        2.948699000000       0.137089000000       0.190968000000
         9    2        2.287050000000      -1.193697000000      -1.939820000000
        10    2        3.003681000000      -2.479665000000       0.224261000000
        11    3        0.400523000000      -1.141334000000      -1.999210000000
        12    2       10.248272000000      16.776271000000       0.752696000000
        13    1        9.735029000000      17.153999000000       1.468433000000
        14    1        9.602964000000      16.585410000000       0.070402000000
        15    2       14.529349000000      16.538565000000      10.984690000000
        16    1       13.582116000000      16.683901000000      10.985679000000
        17    1       14.830813000000      16.931662000000      10.164342000000
        18    2        7.031087000000       7.118758000000      10.033122000000
        19    1        6.110630000000       7.272231000000       9.814990000000
        20    1        7.045406000000       6.234037000000      10.401141000000
        21    2        9.227018000000       7.334228000000       7.988531000000
        22    1        8.310299000000       7.453751000000       8.240950000000
        23    1        9.327527000000       6.385849000000       7.894457000000
        24    2        6.816025000000      14.197842000000       9.850246000000
        25    1        6.207153000000      14.494465000000       9.172260000000
        26    1        6.336127000000      14.316441000000      10.671225000000
        27    2       14.594470000000       8.418098000000       8.601534000000
        28    1       14.535292000000       9.359743000000       8.769396000000
        29    1       13.704391000000       8.162715000000       8.354725000000
        30    2        7.536141000000       1.326007000000      10.315756000000
        31    1        6.801859000000       1.537444000000      10.894115000000
        32    1        8.088208000000       0.739315000000      10.834784000000
        33    2        8.259217000000       4.038290000000       9.163697000000
        34    1        8.422231000000       3.093975000000       9.155292000000
        35    1        9.044388000000       4.413010000000       9.565525000000
        36    2        2.199302000000       4.840653000000       5.460166000000
        37    1        2.233239000000       4.300859000000       4.669062000000
        38    1        3.060411000000       4.726328000000       5.864884000000
        39    2        5.023830000000      10.165710000000       3.648553000000
        40    1        4.788615000000      10.204345000000       2.720353000000
        41    1        5.716743000000      10.820324000000       3.747179000000
        42    2       11.309534000000       5.791045000000      16.319684000000
        43    1       11.927334000000       6.466681000000      16.602906000000
        44    1       11.335546000000       5.829221000000      15.362480000000
        45    2       11.607151000000       6.878089000000       7.602723000000
        46    1       11.773792000000       7.765728000000       7.282250000000
        47    1       12.476680000000       6.480891000000       7.670024000000
        48    2        7.993961000000      10.194334000000      10.772612000000
        49    1        7.795311000000       9.259151000000      10.838537000000
        50    1        8.843050000000      10.227864000000      10.329554000000
        51    2        9.619814000000      14.113545000000       2.322568000000
        52    1       10.434241000000      13.729481000000       2.650560000000
        53    1        9.883867000000      14.960116000000       1.959294000000
        54    2        0.161823000000       4.676229000000      10.589575000000
        55    1        0.987783000000       4.766757000000      10.112114000000
        56    1       -0.019508000000       3.735298000000      10.577605000000
        57    2       10.685052000000       7.123198000000       5.472759000000
        58    1       11.178316000000       7.167065000000       4.652307000000
        59    1        9.767944000000       7.197037000000       5.204736000000
        60    2        0.516854000000      15.326517000000       1.660534000000
        61    1       -0.000693000000      14.584165000000       1.975866000000
        62    1        0.406509000000      15.307960000000       0.708770000000
        63    2       11.757850000000       1.064734000000       8.862136000000
        64    1       11.366236000000       0.327567000000       9.332878000000
        65    1       11.050817000000       1.396783000000       8.306958000000
        66    2       16.503429000000       0.420805000000       8.935709000000
        67    1       15.774181000000       1.040674000000       8.887378000000
        68    1       17.200270000000       0.905475000000       9.380550000000
        69    2        9.604982000000       6.392069000000      11.157239000000
        70    1        9.271612000000       7.143363000000      11.649983000000
        71    1       10.001407000000       6.776526000000      10.374030000000
        72    2        1.355769000000       2.557835000000      15.367791000000
        73    1        1.289849000000       3.153202000000      16.115833000000
        74    1        0.613281000000       1.960826000000      15.471070000000
        75    2       12.897821000000      13.891332000000      16.905996000000
        76    1       13.638649000000      14.477853000000      17.065816000000
        77    1       12.135143000000      14.377511000000      17.222740000000
        78    2        4.121332000000       2.551307000000      10.747390000000
        79    1        5.007655000000       2.785460000000      11.026637000000
        80    1        3.793564000000       1.981428000000      11.444657000000
        81    2        6.516251000000       0.658390000000       3.836606000000
        82    1        5.803373000000       0.018091000000       3.822527000000
        83    1        7.313490000000       0.130143000000       3.775446000000
        84    2        8.980177000000       0.225019000000       8.320115000000
        85    1        8.876355000000       1.163372000000       8.155529000000
        86    1        8.148701000000      -0.042066000000       8.714690000000
        87    2       15.216481000000       1.796194000000      11.246377000000
        88    1       14.949466000000       2.579209000000      11.730077000000
        89    1       14.493522000000       1.632018000000      10.639128000000
        90    2       15.626492000000      12.776771000000      13.430275000000
        91    1       16.464404000000      12.354949000000      13.626093000000
        92    1       15.285072000000      12.292402000000      12.677152000000
        93    2        8.936357000000       9.730180000000       8.119186000000
        94    1        9.668092000000      10.347100000000       8.167660000000
        95    1        8.155095000000      10.285161000000       8.120465000000
        96    2       11.674921000000       5.170288000000      12.447324000000
        97    1       11.755342000000       6.006901000000      11.986903000000
        98    1       11.091452000000       4.648235000000      11.894694000000
        99    2        3.931025000000       1.946817000000      14.325758000000
       100    1        4.469270000000       1.158519000000      14.410923000000
       101    1        4.551380000000       2.634629000000      14.079893000000
       102    2       12.131014000000       1.921244000000       5.129188000000
       103    1       11.932252000000       0.988912000000       5.031077000000
       104    1       11.272908000000       2.346700000000       5.161085000000
       105    2       15.318622000000      13.774645000000       1.603435000000
       106    1       15.452490000000      12.933062000000       1.165037000000
       107    1       14.839251000000      13.554069000000       2.403388000000
       108    2        5.950222000000      15.582476000000       7.230512000000
       109    1        6.161129000000      14.927518000000       6.563487000000
       110    1        6.593527000000      16.279398000000       7.093275000000
       111    2       15.945577000000      10.959977000000      10.155109000000
       112    1       16.336377000000      10.210575000000       9.703393000000
       113    1       15.102529000000      10.634191000000      10.473715000000
       114    2       16.700620000000       8.856216000000      14.214631000000
       115    1       17.224276000000       8.945920000000      15.012198000000
       116    1       17.228738000000       9.274962000000      13.533369000000
       117    2       12.748010000000       4.726630000000       1.745061000000
       118    1       13.231574000000       3.938778000000       1.492410000000
       119    1       13.425801000000       5.390872000000       1.878316000000
       120    2        7.357475000000       3.115060000000       4.044603000000
       121    1        6.568220000000       3.374688000000       3.567062000000
       122    1        7.756576000000       2.437624000000       3.496721000000
       123    2        4.016759000000       9.252197000000       5.801604000000
       124    1        4.612390000000       8.652305000000       5.350242000000
       125    1        3.144332000000       8.890651000000       5.638721000000
       126    2       15.756445000000       3.029067000000       5.297998000000
       127    1       14.982858000000       3.593493000000       5.334877000000
       128    1       15.694286000000       2.486287000000       6.085336000000
       129    2        7.923411000000       8.418556000000       5.563360000000
       130    1        8.142096000000       9.158838000000       6.131281000000
       131    1        8.112980000000       8.732201000000       4.677885000000
       132    2        9.722328000000       5.710189000000       2.778295000000
       133    1        9.357097000000       6.093378000000       1.979453000000
       134    1       10.666527000000       5.856050000000       2.703534000000
       135    2        1.525229000000       1.270091000000       6.642338000000
       136    1        1.297895000000       0.871766000000       7.483784000000
       137    1        2.481648000000       1.222225000000       6.605643000000
       138    2       11.786225000000       4.001042000000       9.139016000000
       139    1       12.172218000000       3.248689000000       8.688074000000
       140    1       11.479571000000       3.647236000000       9.975174000000
       141    2       14.176229000000       2.409581000000       3.668215000000
       142    1       14.161338000000       2.055611000000       2.777789000000
       143    1       13.414164000000       2.989281000000       3.707959000000
       144    2        5.971033000000      14.454470000000      15.163713000000
       145    1        6.656721000000      13.925046000000      15.573490000000
       146    1        5.606981000000      14.972661000000      15.882962000000
       147    2       13.837236000000      11.875888000000      15.556656000000
       148    1       14.211403000000      11.890581000000      16.438789000000
       149    1       13.939633000000      10.967677000000      15.268484000000
       150    2        2.840370000000       6.216041000000       3.777709000000
       151    1        3.697038000000       5.965751000000       4.126781000000
       152    1        2.797385000000       7.164669000000       3.906677000000
       153    2        5.595211000000       7.456265000000       3.520125000000
       154    1        6.152418000000       8.158664000000       3.858549000000
       155    1        4.858416000000       7.911850000000       3.110307000000
       156    2        9.761793000000       4.615279000000      14.083950000000
       157    1        9.663211000000       4.390484000000      15.010300000000
       158    1        9.854080000000       3.770355000000      13.641273000000
       159    2       13.013329000000      10.844742000000       6.305424000000
       160    1       12.482666000000      10.123299000000       6.646439000000
       161    1       13.789161000000      10.857658000000       6.867823000000
       162    2        9.089012000000       0.583691000000       1.718357000000
       163    1        9.847045000000      -0.001781000000       1.686978000000
       164    1        8.332452000000      -0.000751000000       1.651879000000
       165    2        1.678150000000      11.133066000000       9.072378000000
       166    1        1.006136000000      10.609705000000       9.511541000000
       167    1        1.364756000000      12.035657000000       9.146470000000
       168    2        4.923950000000       8.594115000000      16.113400000000
       169    1        4.340729000000       8.192501000000      15.467695000000
       170    1        5.734011000000       8.085659000000      16.052994000000
       171    2        7.895675000000      16.387201000000       9.968963000000
       172    1        7.738995000000      16.945279000000      10.732098000000
       173    1        8.829264000000      16.494986000000       9.781428000000
       174    2       13.897789000000       0.919267000000       7.483261000000
       175    1       13.891593000000       1.182627000000       6.561860000000
       176    1       13.872984000000       1.745375000000       7.968343000000
       177    2        5.750174000000       8.896028000000       8.301092000000
       178    1        6.326597000000       8.543754000000       7.621376000000
       179    1        6.027443000000       9.807916000000       8.400879000000
       180    2        3.618859000000      10.434683000000       9.839730000000
       181    1        3.491428000000      11.264226000000      10.302325000000
       182    1        4.280054000000       9.971797000000      10.356386000000
       183    2       12.533844000000      12.430572000000      13.457579000000
       184    1       12.994080000000      11.623409000000      13.222961000000
       185    1       11.639459000000      12.147645000000      13.653545000000
       186    2        1.436916000000      15.649522000000      15.345684000000
       187    1        1.583504000000      14.740860000000      15.078811000000
       188    1        1.803701000000      15.701394000000      16.229513000000
       189    2        9.571542000000       5.006032000000       4.895311000000
       190    1       10.528010000000       5.021268000000       4.837772000000
       191    1        9.324249000000       4.150235000000       4.541995000000
       192    2       10.012279000000       3.479117000000       0.577360000000
       193    1       10.817707000000       3.091809000000       0.231449000000
       194    1       10.312938000000       4.197942000000       1.135275000000
       195    2       11.652107000000       1.437981000000      15.989321000000
       196    1       11.714545000000       0.495684000000      16.152268000000
       197    1       11.418374000000       1.812830000000      16.839752000000
       198    2        6.189307000000       2.575211000000       6.027393000000
       199    1        7.079059000000       2.551736000000       6.382591000000
       200    1        6.030673000000       1.681392000000       5.720312000000
       201    2        5.472839000000      12.358557000000      12.762181000000
       202    1        5.265310000000      11.441525000000      12.576818000000
       203    1        4.626702000000      12.807108000000      12.727112000000
       204    2       15.586579000000       8.585824000000      11.205306000000
       205    1       15.696845000000       7.641605000000      11.084201000000
       206    1       14.656161000000       8.693978000000      11.407793000000
       207    2       13.937403000000       6.104509000000      15.816008000000
       208    1       14.229002000000       5.324535000000      15.341681000000
       209    1       14.649286000000       6.291307000000      16.429769000000
       210    2        4.858728000000      16.290779000000       9.753397000000
       211    1        4.249253000000      15.551892000000       9.784408000000
       212    1        4.299237000000      17.065526000000       9.824888000000
       213    2       12.362904000000       3.775918000000       6.379703000000
       214    1       13.250861000000       3.556442000000       6.665601000000
       215    1       12.358891000000       4.732655000000       6.324813000000
       216    2        4.018633000000      16.277988000000      12.121892000000
       217    1        4.740025000000      15.674668000000      11.937571000000
       218    1        4.433181000000      17.016723000000      12.569996000000
       219    2        9.821733000000      14.530804000000      11.627473000000
       220    1        9.865971000000      15.477079000000      11.482622000000
       221    1        8.884510000000      14.331026000000      11.618711000000
       222    2        2.445048000000       4.573644000000      12.138865000000
       223    1        2.621317000000       3.967038000000      12.859513000000
       224    1        2.741668000000       5.424699000000      12.464590000000
       225    2       14.070965000000      14.504384000000      12.966890000000
       226    1       14.626360000000      14.709988000000      13.720308000000
       227    1       14.687874000000      14.350280000000      12.249917000000
       228    2        0.080801000000       8.838368000000       4.950015000000
       229    1       -0.015238000000       7.888096000000       5.028348000000
       230    1        1.012659000000       8.998308000000       5.106330000000
       231    2       15.873829000000       6.026590000000       2.492691000000
       232    1       15.338586000000       5.386913000000       2.964607000000
       233    1       15.238028000000       6.619749000000       2.089833000000
       234    2       17.283857000000      15.877123000000      13.834004000000
       235    1       16.608828000000      16.541342000000      13.980711000000
       236    1       16.796354000000      15.057567000000      13.738902000000
       237    2        9.522689000000       3.826737000000       6.747846000000
       238    1       10.344781000000       3.901399000000       7.234637000000
       239    1        9.232152000000       2.927241000000       6.905550000000
       240    2       12.184385000000      14.894467000000      15.077940000000
       241    1       12.747341000000      14.196485000000      14.739892000000
       242    1       12.153631000000      15.540558000000      14.370836000000
       243    2        6.214564000000      11.764954000000       9.980473000000
       244    1        6.829864000000      12.057634000000      10.654358000000
       245    1        5.428391000000      12.292435000000      10.129033000000
       246    2       13.092216000000      15.862134000000       6.565163000000
       247    1       12.964032000000      15.093699000000       7.123241000000
       248    1       12.258830000000      15.963908000000       6.103118000000
       249    2        2.673155000000       7.821671000000      -0.026079000000
       250    1        2.211827000000       7.493385000000       0.747083000000
       251    1        2.776218000000       8.760291000000       0.137463000000
       252    2        5.331293000000       4.181475000000      12.679968000000
       253    1        5.432327000000       4.716976000000      13.468261000000
       254    1        5.757028000000       4.690663000000      11.988700000000
       255    2       14.194170000000       8.044974000000      14.463478000000
       256    1       14.554005000000       8.891092000000      14.733623000000
       257    1       14.868796000000       7.668096000000      13.896716000000
       258    2        3.439854000000       5.447597000000       1.766738000000
       259    1        2.632990000000       4.934062000000       1.706497000000
       260    1        4.136958000000       4.792287000000       1.821415000000
       261    2        2.202794000000       7.311215000000      11.176276000000
       262    1        1.676443000000       7.876983000000      11.743052000000
       263    1        1.558716000000       6.814546000000      10.669464000000
       264    2        4.370075000000      16.301060000000      14.647410000000
       265    1        4.206918000000      17.200497000000      14.935105000000
       266    1        3.587581000000      15.817991000000      14.917082000000
       267    2       15.997450000000      11.268532000000       3.319026000000
       268    1       15.993203000000      10.347316000000       3.054984000000
       269    1       15.078708000000      11.536257000000       3.267920000000
       270    2       13.873194000000       4.794871000000      12.906917000000
       271    1       14.821493000000       4.662870000000      12.947896000000
       272    1       13.764926000000       5.746795000000      12.884675000000
       273    2        1.538661000000      15.621503000000       4.268556000000
       274    1        2.481553000000      15.501840000000       4.391072000000
       275    1        1.150943000000      14.803102000000       4.582035000000
       276    2        3.790199000000       6.173069000000      16.367693000000
       277    1        3.834049000000       6.034129000000      15.420514000000
       278    1        2.947296000000       6.607213000000      16.507008000000
       279    2        8.865301000000      15.715228000000      15.221497000000
       280    1        9.758190000000      15.373536000000      15.287611000000
       281    1        8.883190000000      16.283613000000      14.450139000000
       282    2       16.754516000000       6.709510000000      14.743677000000
       283    1       16.341741000000       5.864671000000      14.928717000000
       284    1       17.070681000000       6.629018000000      13.842602000000
       285    2        0.860445000000       3.340825000000       6.537919000000
       286    1        0.366927000000       3.115404000000       7.327856000000
       287    1        0.205922000000       3.337807000000       5.837943000000
       288    2        8.109686000000      15.380156000000       5.647240000000
       289    1        8.784232000000      15.598146000000       5.002381000000
       290    1        8.577645000000      14.894459000000       6.328039000000
       291    2       10.682377000000      11.336593000000      11.106497000000
       292    1       11.560980000000      11.323595000000      11.488942000000
       293    1       10.784313000000      11.827147000000      10.289588000000
       294    2       13.106509000000      16.656668000000       0.948746000000
       295    1       12.450307000000      15.958314000000       0.940042000000
       296    1       13.946587000000      16.195535000000       0.949931000000
       297    2        1.533309000000       2.648128000000       9.467539000000
       298    1        2.440858000000       2.950155000000       9.408292000000
       299    1        1.601211000000       1.693085000000       9.508266000000
       300    2        4.045782000000       2.733956000000       7.761674000000
       301    1        4.904834000000       2.763137000000       8.185411000000
       302    1        4.183463000000       3.156205000000       6.912483000000
       303    2       12.443377000000      14.124393000000      11.584087000000
       304    1       11.751491000000      13.511406000000      11.331273000000
       305    1       11.994622000000      14.965844000000      11.678720000000
       306    2       12.742772000000      15.732636000000       9.203279000000
       307    1       12.122593000000      15.044482000000       9.448632000000
       308    1       12.193267000000      16.496933000000       9.023640000000
       309    2       10.545871000000      12.157145000000      16.144907000000
       310    1        9.909702000000      12.863280000000      16.022279000000
       311    1       11.395346000000      12.569362000000      15.981068000000
       312    2        9.741936000000       0.826930000000       4.756675000000
       313    1        9.617553000000       1.454449000000       4.043146000000
       314    1        9.378059000000       0.006765000000       4.420078000000
       315    2       17.231411000000       5.349597000000       6.533916000000
       316    1       16.398566000000       4.895902000000       6.396418000000
       317    1       16.999380000000       6.279390000000       6.538582000000
       318    2        1.314676000000      11.175730000000       4.550221000000
       319    1        1.742543000000      10.664193000000       3.862009000000
       320    1        1.850502000000      11.023037000000       5.329933000000
       321    2        2.777793000000      13.185116000000       3.110346000000
       322    1        2.288428000000      13.959319000000       2.828376000000
       323    1        2.434240000000      12.989836000000       3.983393000000
       324    2        6.204466000000      10.942603000000       6.474962000000
       325    1        7.068414000000      11.315846000000       6.294242000000
       326    1        6.178845000000      10.136848000000       5.956813000000
       327    2        3.659372000000       0.105573000000       9.024326000000
       328    1        2.739328000000      -0.094712000000       8.846056000000
       329    1        3.675426000000       1.053812000000       9.162029000000
       330    2        6.378868000000      11.347076000000       1.718239000000
       331    1        6.051419000000      11.249469000000       0.822904000000
       332    1        7.192499000000      11.844282000000       1.622502000000
       333    2        7.274584000000      15.565539000000      13.066291000000
       334    1        6.647544000000      14.904659000000      12.768912000000
       335    1        6.861696000000      16.402359000000      12.848042000000
       336    2        5.665909000000       0.221672000000       8.152328000000
       337    1        6.001224000000       0.274695000000       9.048502000000
       338    1        6.374004000000       0.573386000000       7.610780000000
       339    2       12.136748000000       8.237499000000      13.678175000000
       340    1       12.325011000000       9.108675000000      14.030290000000
       341    1       11.551107000000       7.839836000000      14.324135000000
       342    2       10.175602000000      16.615046000000       6.372108000000
       343    1       10.462006000000      17.202431000000       5.671160000000
       344    1        9.957435000000      17.199375000000       7.099664000000
       345    2        7.045266000000       5.264880000000       7.707468000000
       346    1        7.432801000000       4.631676000000       7.101460000000
       347    1        6.960991000000       6.068474000000       7.192192000000
       348    2        9.342754000000      12.128500000000      13.595270000000
       349    1        8.691946000000      12.301238000000      14.277169000000
       350    1        9.587159000000      12.997037000000      13.272340000000
       351    2       12.318578000000      10.314703000000       9.681042000000
       352    1       12.942138000000      11.025394000000       9.524625000000
       353    1       12.829791000000       9.643694000000      10.135777000000
       354    2       16.509312000000      12.263974000000       7.114040000000
       355    1       15.888446000000      11.537722000000       7.187927000000
       356    1       16.429363000000      12.555445000000       6.204629000000
       357    2       17.053054000000       9.977136000000       5.571102000000
       358    1       16.334308000000       9.563923000000       5.090443000000
       359    1       17.200119000000      10.806905000000       5.114778000000
       360    2        5.696341000000      16.960661000000       2.241152000000
       361    1        5.440930000000      16.044731000000       2.360367000000
       362    1        6.318013000000      17.129916000000       2.950555000000
       363    2        0.161750000000       1.846829000000      12.983878000000
       364    1        0.852237000000       1.233778000000      12.727418000000
       365    1        0.598358000000       2.699329000000      13.015397000000
       366    2        1.533763000000      16.576927000000       9.115606000000
       367    1        2.085832000000      16.242128000000       9.823776000000
       368    1        0.664791000000      16.663535000000       9.510274000000
       369    2       12.182254000000      12.002721000000       2.679599000000