 #   Built with Packmol
  
         518  atoms
           4  atom types
 
      0.000000000000      17.200000000000  xlo xhi
      0.000000000000      17.200000000000  ylo yhi
      0.000000000000      17.200000000000  zlo zhi
 
Masses
 
            1   1.00800000              # H
            2   15.99900000             # O
            3   24.30500000             # Mg
            4   30.97376200             # P
 
Atoms # atomic
 
         1    4       -0.869855000000      -0.551312000000      -0.920049000000
         2    2        0.038023000000      -1.567927000000      -0.142312000000
         3    2       -0.144111000000       0.192025000000      -2.058525000000
         4    2       -1.526246000000       0.464815000000       0.128767000000
         5    2       -2.165831000000      -1.329562000000      -1.445304000000
         6    3       -3.181335000000      -0.351426000000      -0.206900000000
         7    4        1.791247000000      -1.871223000000      -0.355149000000
         8    2        2.130558000000      -2.872277000000       0.672950000000
         9    2        2.333600000000      -0.394894000000      -0.304372000000
        10    2        1.826917000000      -2.201807000000      -1.893343000000
        11    3        1.723033000000      -0.271412000000      -2.154763000000
        12    2       10.240722000000      16.736126000000       0.737167000000
        13    1        9.778202000000      17.170764000000       1.455178000000
        14    1        9.553818000000      16.525214000000       0.103090000000
        15    2        6.318340000000       2.040010000000       0.866537000000
        16    1        5.361115000000       2.082949000000       0.882393000000
        17    1        6.565229000000       2.501572000000       0.063803000000
        18    2       14.581365000000      16.908704000000      11.089989000000
        19    1       13.632180000000      17.024153000000      11.025998000000
        20    1       14.699575000000      15.966500000000      11.219032000000
        21    2        6.780742000000       7.357633000000       9.930580000000
        22    1        6.292308000000       6.734954000000      10.471023000000
        23    1        7.302215000000       6.807680000000       9.344070000000
        24    2        9.388941000000       6.886709000000       7.432732000000
        25    1        8.623320000000       7.097235000000       6.896189000000
        26    1        9.189419000000       7.261635000000       8.291800000000
        27    2        7.214715000000      13.873237000000       9.062239000000
        28    1        6.518410000000      14.494132000000       9.281383000000
        29    1        6.784705000000      13.215303000000       8.513980000000
        30    2       14.476242000000       8.539135000000       8.268026000000
        31    1       13.606406000000       8.453219000000       8.660937000000
        32    1       15.056655000000       8.066018000000       8.866070000000
        33    2        7.484793000000       1.446941000000       9.968236000000
        34    1        8.299334000000       1.756382000000      10.367165000000
        35    1        6.845673000000       2.132955000000      10.166447000000
        36    2        8.667856000000       5.059645000000       9.307610000000
        37    1        8.937141000000       4.974757000000       8.391829000000
        38    1        9.283834000000       4.506535000000       9.790327000000
        39    2        2.864400000000       4.155881000000       6.111038000000
        40    1        2.997987000000       3.871959000000       5.205545000000
        41    1        3.210621000000       5.049146000000       6.135191000000
        42    2        5.909312000000       9.807916000000       3.524006000000
        43    1        6.181442000000      10.538747000000       4.080966000000
        44    1        6.444503000000       9.896977000000       2.734061000000
        45    2       11.240971000000       5.637473000000      15.743082000000
        46    1       11.447987000000       6.573151000000      15.737904000000
        47    1       12.095371000000       5.203450000000      15.744146000000
        48    2       11.720077000000       6.795870000000       7.591186000000
        49    1       11.361181000000       5.917271000000       7.723969000000
        50    1       12.513142000000       6.654383000000       7.072144000000
        51    2        7.684188000000       9.760215000000      10.529298000000
        52    1        8.523906000000       9.378521000000      10.789219000000
        53    1        7.906018000000      10.641294000000      10.224557000000
        54    2        9.646846000000      14.248515000000       2.288870000000
        55    1       10.386674000000      14.769751000000       1.973682000000
        56    1        9.918318000000      13.339887000000       2.150760000000
        57    2       11.022383000000       7.165832000000       5.543018000000
        58    1       11.541721000000       7.145514000000       4.737878000000
        59    1       10.118390000000       7.268709000000       5.242039000000
        60    2        0.612858000000      15.321850000000       1.609599000000
        61    1        0.003759000000      14.647834000000       1.914685000000
        62    1        0.539485000000      15.295923000000       0.654445000000
        63    2       11.911943000000       1.033990000000       8.823624000000
        64    1       11.363133000000       0.369985000000       9.243482000000
        65    1       11.313552000000       1.506940000000       8.243433000000
        66    2       16.503935000000       0.478917000000       8.962766000000
        67    1       15.770068000000       1.093326000000       8.914647000000
        68    1       17.199992000000       0.971459000000       9.400125000000
        69    2        9.287660000000       6.373185000000      10.961491000000
        70    1        8.915910000000       7.238507000000      11.138678000000
        71    1        9.967062000000       6.534537000000      10.305172000000
        72    2        1.285301000000       2.641767000000      15.266884000000
        73    1        1.241046000000       3.213498000000      16.034700000000
        74    1        0.543208000000       2.044313000000      15.370431000000
        75    2       12.548792000000      14.098174000000      16.761493000000
        76    1       13.218279000000      14.637849000000      17.184474000000
        77    1       11.734839000000      14.331322000000      17.210378000000
        78    2        4.127040000000       2.990363000000      10.648908000000
        79    1        5.030262000000       3.092790000000      10.952346000000
        80    1        3.719138000000       2.418377000000      11.300693000000
        81    2        0.760696000000       4.274617000000       3.670735000000
        82    1        0.874543000000       3.324291000000       3.622831000000
        83    1        1.651624000000       4.624814000000       3.626175000000
        84    2        6.972566000000       0.023554000000       3.597429000000
        85    1        7.187515000000       0.955455000000       3.536321000000
        86    1        6.020450000000       0.004200000000       3.704549000000
        87    2        9.235338000000       0.004447000000       7.996324000000
        88    1        9.203764000000       0.482895000000       8.826063000000
        89    1        8.464261000000       0.308551000000       7.515351000000
        90    2       14.841679000000       2.373652000000      11.348193000000
        91    1       15.651217000000       1.870221000000      11.446069000000
        92    1       14.370966000000       1.934107000000      10.638542000000
        93    2       15.916322000000      12.128867000000      12.827232000000
        94    1       15.948835000000      13.007296000000      13.208913000000
        95    1       14.985051000000      11.973891000000      12.662635000000
        96    2        8.698155000000       9.736329000000       8.381317000000
        97    1        8.656877000000      10.506200000000       7.812132000000
        98    1        8.054197000000       9.130603000000       8.011468000000
        99    2       10.930767000000       5.038734000000      12.184034000000
       100    1       11.164560000000       4.116823000000      12.301486000000
       101    1       11.759690000000       5.470664000000      11.972613000000
       102    2        4.713226000000       2.226608000000      14.275963000000
       103    1        4.782903000000       1.332882000000      13.937180000000
       104    1        3.770307000000       2.386031000000      14.338117000000
       105    2       11.489923000000       1.738464000000       5.332827000000
       106    1       11.714746000000       0.910496000000       4.905864000000
       107    1       10.938784000000       1.483394000000       6.074151000000
       108    2       14.741987000000      13.320149000000       1.894741000000
       109    1       14.810514000000      12.738035000000       1.136571000000
       110    1       15.416306000000      13.984991000000       1.747587000000
       111    2        6.513370000000      16.001197000000       7.134474000000
       112    1        6.407407000000      15.079435000000       6.894682000000
       113    1        5.636812000000      16.280979000000       7.402323000000
       114    2       15.305447000000      10.683258000000       9.636958000000
       115    1       15.320194000000      10.461269000000      10.569094000000
       116    1       16.203269000000      10.955574000000       9.441679000000
       117    2       16.637667000000       8.306351000000      13.440034000000
       118    1       17.226801000000       7.661750000000      13.045336000000
       119    1       17.211682000000       9.029685000000      13.696296000000
       120    2       13.503261000000       4.831270000000       2.266292000000
       121    1       12.797291000000       5.436479000000       2.034550000000
       122    1       13.742984000000       4.414670000000       1.437225000000
       123    2        8.166374000000       3.472425000000       4.487775000000
       124    1        8.897542000000       2.854423000000       4.530694000000
       125    1        7.383985000000       2.920246000000       4.524412000000
       126    2        4.055469000000       8.836110000000       4.600505000000
       127    1        3.215890000000       8.720838000000       5.047936000000
       128    1        4.712090000000       8.626020000000       5.266151000000
       129    2       15.196898000000       2.733585000000       5.677279000000
       130    1       15.172925000000       3.619525000000       6.041848000000
       131    1       15.544061000000       2.848729000000       4.791506000000
       132    2        7.422128000000       8.687962000000       5.956761000000
       133    1        6.896597000000       8.707647000000       5.155634000000
       134    1        8.298583000000       8.953520000000       5.674485000000
       135    2        9.173027000000       5.816584000000       2.678019000000
       136    1        8.688625000000       5.221904000000       3.252550000000
       137    1       10.094060000000       5.603276000000       2.834780000000
       138    2        1.595830000000       1.084092000000       7.096929000000
       139    1        2.292489000000       0.721646000000       6.547679000000
       140    1        1.391871000000       0.383352000000       7.718009000000
       141    2       11.838495000000       4.312663000000      10.137943000000
       142    1       11.633325000000       3.634053000000       9.493141000000
       143    1       11.428441000000       5.105607000000       9.789414000000
       144    2       13.885987000000       2.488118000000       2.843752000000
       145    1       14.384358000000       1.763976000000       3.225354000000
       146    1       13.721959000000       3.079612000000       3.579690000000
       147    2        5.915749000000      14.674120000000      15.313840000000
       148    1        6.368300000000      14.887045000000      16.131297000000
       149    1        6.059079000000      13.733559000000      15.199053000000
       150    2       13.488580000000      11.135854000000      15.877161000000
       151    1       14.192502000000      10.763542000000      16.410314000000
       152    1       13.509902000000      12.073531000000      16.073844000000
       153    2        3.148609000000       6.217703000000       4.273117000000
       154    1        3.844488000000       6.668318000000       4.753818000000
       155    1        2.592773000000       6.923407000000       3.939347000000
       156    2        4.288766000000       7.033606000000       2.566286000000
       157    1        5.099872000000       6.523232000000       2.565723000000
       158    1        4.580523000000       7.946432000000       2.567814000000
       159    2        9.307809000000       4.796897000000      13.872926000000
       160    1        8.637797000000       4.244776000000      14.278660000000
       161    1       10.136518000000       4.456287000000      14.212928000000
       162    2       13.258964000000      10.997099000000       6.682885000000
       163    1       13.837310000000      10.236064000000       6.614208000000
       164    1       12.376325000000      10.636132000000       6.587873000000
       165    2        9.234512000000       0.072440000000       1.533536000000
       166    1        8.334989000000       0.007267000000       1.857550000000
       167    1        9.421866000000       1.012265000000       1.535212000000
       168    2        1.140530000000      11.630552000000       9.451592000000
       169    1        0.706653000000      11.013200000000       8.860827000000
       170    1        2.054414000000      11.342666000000       9.469283000000
       171    2        4.976613000000       8.093923000000      16.005278000000
       172    1        4.677379000000       8.688902000000      16.694361000000
       173    1        5.925424000000       8.224395000000      15.971974000000
       174    2        8.073205000000      16.129873000000      10.464972000000
       175    1        8.532161000000      16.471085000000       9.696006000000
       176    1        7.738391000000      16.910075000000      10.909448000000
       177    2       13.442490000000       1.227345000000       7.112198000000
       178    1       14.316102000000       0.861906000000       6.965124000000
       179    1       13.579249000000       2.175745000000       7.126675000000
       180    2        5.871930000000       8.779166000000       8.095405000000
       181    1        5.026536000000       9.169257000000       7.868439000000
       182    1        6.132236000000       9.225299000000       8.902610000000
       183    2        3.928641000000      10.458318000000      10.611165000000
       184    1        4.767079000000      10.024251000000      10.446903000000
       185    1        3.299833000000       9.740043000000      10.695175000000
       186    2       12.007538000000      12.037386000000      13.412760000000
       187    1       12.343461000000      11.140265000000      13.386215000000
       188    1       12.389097000000      12.412257000000      14.207908000000
       189    2        1.366135000000      15.210476000000      15.775915000000
       190    1        1.961858000000      15.886357000000      16.102525000000
       191    1        1.859777000000      14.771788000000      15.081476000000
       192    2        9.845922000000       4.772249000000       5.084421000000
       193    1       10.719357000000       5.105637000000       4.873851000000
       194    1        9.595005000000       5.244351000000       5.879741000000
       195    2       10.238054000000       3.716288000000       0.321150000000
       196    1       10.166224000000       2.768447000000       0.442860000000
       197    1       10.271856000000       4.069869000000       1.211213000000
       198    2       11.153549000000       1.283194000000      16.445952000000
       199    1       12.015115000000       1.317031000000      16.864204000000
       200    1       11.074068000000       0.380344000000      16.134633000000
       201    2        5.663843000000       2.226854000000       5.648519000000
       202    1        6.101837000000       1.413735000000       5.392837000000
       203    1        4.736578000000       2.066197000000       5.467566000000
       204    2        8.798283000000      16.225774000000      17.143909000000
       205    1        9.140348000000      15.331535000000      17.102637000000
       206    1        7.847920000000      16.116005000000      17.199901000000
       207    2        4.773296000000      11.048997000000      12.530354000000
       208    1        5.625305000000      10.630033000000      12.400258000000
       209    1        4.947858000000      11.758642000000      13.150279000000
       210    2       16.145908000000       7.597508000000      11.132775000000
       211    1       15.220063000000       7.378040000000      11.246882000000
       212    1       16.180972000000       8.549285000000      11.238922000000
       213    2       13.631048000000       6.862214000000      16.220574000000
       214    1       14.051918000000       6.001646000000      16.246378000000
       215    1       14.359381000000       7.484997000000      16.227398000000
       216    2        3.868145000000      16.286956000000       9.619698000000
       217    1        4.581030000000      15.661662000000       9.481217000000
       218    1        4.300173000000      17.069700000000       9.964718000000
       219    2       12.127286000000       3.672617000000       6.437701000000
       220    1       12.311090000000       4.606088000000       6.322704000000
       221    1       11.170794000000       3.614222000000       6.428306000000
       222    2        4.265449000000      16.151772000000      11.969091000000
       223    1        4.409063000000      15.611730000000      12.747619000000
       224    1        4.578959000000      17.021811000000      12.220329000000
       225    2        9.451628000000      14.710738000000      11.618515000000
       226    1       10.299102000000      14.971579000000      11.982004000000
       227    1        9.649833000000      13.948234000000      11.072917000000
       228    2        2.082944000000       4.997556000000      12.228122000000
       229    1        1.674270000000       4.130745000000      12.228350000000
       230    1        3.024326000000       4.818185000000      12.228898000000
       231    2       14.142912000000      14.566312000000      12.887570000000
       232    1       13.884848000000      13.761227000000      13.338810000000
       233    1       13.316174000000      14.950385000000      12.591991000000
       234    2        0.594299000000       9.275491000000       5.231116000000
       235    1        0.007780000000      10.029899000000       5.303495000000
       236    1        0.007194000000       8.519279000000       5.188385000000
       237    2       15.193599000000       6.203277000000       1.960283000000
       238    1       15.506517000000       7.073548000000       2.211450000000
       239    1       15.802591000000       5.598044000000       2.385957000000
       240    2       16.905826000000      15.919115000000      14.120676000000
       241    1       16.945514000000      15.006684000000      14.410966000000
       242    1       17.202538000000      15.893467000000      13.209809000000
       243    2        9.369313000000       2.431950000000       7.520059000000
       244    1        9.609252000000       2.888706000000       8.327635000000
       245    1        8.587077000000       2.890200000000       7.209430000000
       246    2       13.471041000000      15.528080000000      14.853573000000
       247    1       14.115278000000      14.905777000000      15.194268000000
       248    1       12.666171000000      15.015332000000      14.766120000000
       249    2        5.982741000000      12.753396000000      10.517164000000
       250    1        6.551969000000      12.572164000000      11.266504000000
       251    1        5.375150000000      13.422988000000      10.834739000000
       252    2       12.088648000000      16.152171000000       6.553115000000
       253    1       11.996019000000      16.768161000000       7.281367000000
       254    1       12.657642000000      16.604187000000       5.928373000000
       255    2        5.361059000000       3.892181000000      12.985244000000
       256    1        5.096402000000       4.791189000000      13.185536000000
       257    1        6.286751000000       3.962662000000      12.747544000000
       258    2       14.647386000000       9.400145000000      14.705602000000
       259    1       14.117001000000       8.729164000000      14.273339000000
       260    1       15.348916000000       8.909668000000      15.136489000000
       261    2        3.504167000000       5.171900000000       1.689079000000
       262    1        2.716033000000       5.710484000000       1.773619000000
       263    1        3.173431000000       4.278172000000       1.587894000000
       264    2        1.845861000000       6.078611000000      10.309659000000
       265    1        1.855146000000       7.007931000000      10.543440000000
       266    1        0.954843000000       5.789853000000      10.512347000000
       267    2        4.232395000000      16.600658000000      15.011135000000
       268    1        3.945999000000      15.693327000000      14.896665000000
       269    1        3.421079000000      17.110608000000      15.001532000000
       270    2       15.398197000000      11.319492000000       3.269624000000
       271    1       15.747627000000      10.465783000000       3.009903000000
       272    1       16.162390000000      11.897660000000       3.279949000000
       273    2       14.407174000000       4.961421000000      12.370853000000
       274    1       15.055759000000       4.296940000000      12.607872000000
       275    1       13.563828000000       4.559217000000      12.583865000000
       276    2        5.488094000000      16.984103000000       5.261868000000
       277    1        5.531168000000      17.102366000000       4.311850000000
       278    1        4.581346000000      17.195898000000       5.488419000000
       279    2        1.657446000000      15.009411000000       4.594941000000
       280    1        2.510380000000      15.446298000000       4.591951000000
       281    1        1.266177000000      15.242809000000       3.751847000000
       282    2        3.397211000000       6.520685000000      16.244209000000
       283    1        3.109116000000       5.642130000000      16.496233000000
       284    1        3.591744000000       6.449415000000      15.308552000000
       285    2        9.268000000000      15.766761000000      14.573029000000
       286    1        8.643447000000      15.157572000000      14.969508000000
       287    1        8.753730000000      16.246754000000      13.922253000000
       288    2       15.715964000000       6.249133000000      14.888517000000
       289    1       15.386919000000       6.401653000000      14.001475000000
       290    1       16.576993000000       6.669699000000      14.899864000000
       291    2        0.256363000000       3.679010000000       6.374629000000
       292    1        0.992606000000       3.171919000000       6.719852000000
       293    1        0.666377000000       4.379760000000       5.865500000000
       294    2        8.173496000000      15.667437000000       5.725655000000
       295    1        8.248022000000      14.712090000000       5.737252000000
       296    1        9.080064000000      15.978030000000       5.719125000000
       297    2       10.486540000000      11.822972000000      10.559031000000
       298    1       11.420310000000      11.823472000000      10.343513000000
       299    1       10.284909000000      10.905146000000      10.746957000000
       300    2       12.592738000000      16.543681000000       2.457337000000
       301    1       13.470221000000      16.546076000000       2.842554000000
       302    1       12.671402000000      17.098061000000       1.679616000000
       303    2        1.962995000000       2.802771000000       9.957853000000
       304    1        1.441081000000       1.999334000000       9.936175000000
       305    1        1.315071000000       3.508849000000       9.962811000000
       306    2        5.079128000000       3.124538000000       7.789418000000
       307    1        5.031548000000       2.705681000000       8.650041000000
       308    1        4.215757000000       2.973623000000       7.401875000000
       309    2       12.821691000000      12.981657000000      11.572218000000
       310    1       12.154213000000      13.630962000000      11.345828000000
       311    1       13.620703000000      13.303576000000      11.152310000000
       312    2       12.681102000000      15.468658000000       9.777169000000
       313    1       12.181303000000      16.190483000000       9.393054000000
       314    1       12.274419000000      14.678560000000       9.418381000000
       315    2       10.800068000000      12.050433000000      15.679758000000
       316    1        9.991290000000      11.536457000000      15.670755000000
       317    1       10.504240000000      12.961949000000      15.679733000000
       318    2        9.282617000000       0.775833000000       4.580111000000
       319    1        9.567140000000       0.572384000000       3.687906000000
       320    1        9.589939000000       0.034619000000       5.104068000000
       321    2       17.172637000000       5.605859000000       6.482213000000
       322    1       16.598076000000       6.370134000000       6.546541000000
       323    1       16.720768000000       4.924174000000       6.981707000000
       324    2        1.893227000000      10.791437000000       4.316454000000
       325    1        1.954629000000      11.649746000000       4.738249000000
       326    1        2.510980000000      10.839427000000       3.585390000000
       327    2        2.346182000000      12.969634000000       3.017327000000
       328    1        1.431449000000      13.224314000000       2.887799000000
       329    1        2.806137000000      13.797123000000       3.165918000000
       330    2        6.640581000000      10.557186000000       6.773415000000
       331    1        5.840785000000      10.431228000000       6.260739000000
       332    1        7.281011000000      10.885734000000       6.140738000000
       333    2        3.716705000000       0.820044000000       8.944039000000
       334    1        3.402167000000       0.012943000000       8.534126000000
       335    1        3.127000000000       1.500493000000       8.615997000000
       336    2        5.736420000000      12.063082000000       2.169462000000
       337    1        6.005661000000      12.448869000000       3.004359000000
       338    1        6.518648000000      12.115652000000       1.618344000000
       339    2        6.929788000000      15.659972000000      12.572652000000
       340    1        6.783236000000      16.510173000000      12.989852000000
       341    1        6.492292000000      15.031951000000      13.149333000000
       342    2        6.296446000000       0.672833000000       7.694285000000
       343    1        6.617520000000       1.570018000000       7.592576000000
       344    1        5.882190000000       0.663533000000       8.558392000000
       345    2       11.926523000000       8.232280000000      14.122569000000
       346    1       12.049470000000       7.305231000000      13.913188000000
       347    1       12.220886000000       8.695965000000      13.337253000000
       348    2        6.733984000000       4.005854000000       9.038403000000
       349    1        6.471457000000       4.707582000000       9.635926000000
       350    1        6.833451000000       4.439244000000       8.189489000000
       351    2        8.903999000000      12.958881000000      13.471908000000
       352    1        9.781470000000      13.343097000000      13.443630000000
       353    1        9.049944000000      12.048052000000      13.731651000000
       354    2       13.168091000000      10.502086000000      10.128939000000
       355    1       12.653444000000       9.777461000000      10.487313000000
       356    1       12.933792000000      10.525422000000       9.199996000000
       357    2       16.367949000000      11.988490000000       7.185531000000
       358    1       15.666490000000      11.451579000000       6.813970000000
       359    1       16.325954000000      12.810260000000       6.694302000000
       360    2       16.596437000000      10.432035000000       5.102202000000
       361    1       15.984873000000       9.695640000000       5.056508000000
       362    1       17.199571000000      10.198558000000       5.809374000000
       363    2        5.309793000000      16.188458000000       2.210349000000
       364    1        5.677296000000      15.376211000000       1.858822000000
       365    1        6.039040000000      16.809845000000       2.189065000000
       366    2        0.851450000000       2.116315000000      12.595062000000
       367    1        1.499744000000       1.760501000000      13.204559000000
       368    1        0.039358000000       2.150532000000      13.102714000000
       369    2        1.228963000000      16.470566000000       9.435576000000