 #  generated by VMD
  
         518  atoms
           4  atom types
 
      0.000000000000      17.200000000000  xlo xhi
      0.000000000000      17.200000000000  ylo yhi
      0.000000000000      17.200000000000  zlo zhi
 
Masses
 
            1   1.00800000              # H
            2   15.99900000             # O
            3   24.30500000             # Mg
            4   30.97376200             # P
 
Atoms # atomic
 
         1    4       16.516851000000       0.898478000000      16.017742000000
         2    2       15.760721000000      16.675177000000      16.442169000000
         3    2        0.460243000000       1.144605000000      17.037788000000
         4    2       15.432873000000       2.013535000000      16.167021000000
         5    2       16.910421000000       0.604258000000      14.568263000000
         6    3        0.684426000000       0.245580000000       1.601992000000
         7    4       16.598242000000      15.360495000000      16.836153000000
         8    2        0.058753000000      15.729761000000       0.952085000000
         9    2        0.446316000000      15.193707000000      15.742095000000
        10    2       15.628592000000      14.208336000000      17.085638000000
        11    3        0.311177000000      15.865230000000      13.719752000000
        12    2       13.239408000000       5.823834000000      10.989202000000
        13    1       12.890300000000       6.660752000000      10.667130000000
        14    1       12.568092000000       5.153137000000      10.764380000000
        15    2       12.109007000000      16.526106000000       3.558147000000
        16    1       12.519571000000      17.098280000000       2.866277000000
        17    1       12.579358000000      15.694004000000       3.599788000000
        18    2        8.298674000000       8.083966000000       3.734103000000
        19    1        8.675732000000       8.908844000000       3.475931000000
        20    1        8.991077000000       7.438037000000       3.548360000000
        21    2       16.449926000000      13.601847000000       6.403164000000
        22    1       16.535892000000      12.950518000000       5.747844000000
        23    1       16.960234000000      13.320746000000       7.166260000000
        24    2        3.107077000000       0.982495000000      15.768634000000
        25    1        2.541386000000       0.850691000000      16.566130000000
        26    1        2.795981000000       1.711981000000      15.299882000000
        27    2        5.998707000000       8.335413000000       1.413192000000
        28    1        5.219220000000       7.885942000000       1.205343000000
        29    1        6.238991000000       7.865732000000       2.230496000000
        30    2       10.205001000000      15.014241000000       6.286239000000
        31    1        9.417947000000      15.230187000000       6.776749000000
        32    1        9.952212000000      15.304234000000       5.381003000000
        33    2        5.468155000000      12.842088000000       7.234011000000
        34    1        5.061375000000      13.498078000000       7.773248000000
        35    1        6.163190000000      12.423337000000       7.808800000000
        36    2       11.932724000000       7.278593000000       6.275352000000
        37    1       12.676950000000       6.645031000000       6.106774000000
        38    1       11.174531000000       6.775046000000       6.561680000000
        39    2        6.814984000000      12.201646000000      11.162835000000
        40    1        6.444668000000      13.079982000000      11.013401000000
        41    1        7.508041000000      12.314272000000      11.836061000000
        42    2       11.701797000000      10.617182000000       9.655014000000
        43    1       11.218596000000      10.957071000000       8.920712000000
        44    1       12.479151000000      11.196151000000       9.700664000000
        45    2       15.601174000000      12.717697000000      15.206108000000
        46    1       16.456289000000      12.360970000000      15.351138000000
        47    1       15.506506000000      13.232906000000      16.077871000000
        48    2       14.964706000000       8.566116000000       3.294488000000
        49    1       14.748966000000       7.829767000000       2.561183000000
        50    1       14.116797000000       9.049368000000       3.358145000000
        51    2        1.889661000000       2.005468000000      10.202043000000
        52    1        1.326375000000       2.351223000000      10.925131000000
        53    1        2.312488000000       1.233684000000      10.589387000000
        54    2       10.176123000000      11.688364000000       7.377699000000
        55    1       10.593842000000      12.514118000000       7.629611000000
        56    1        9.368496000000      11.640135000000       7.933879000000
        57    2        5.307490000000       0.846930000000      11.212474000000
        58    1        5.095431000000       1.660167000000      10.817682000000
        59    1        4.518818000000       0.260941000000      11.093038000000
        60    2        0.226161000000       5.642787000000       1.847985000000
        61    1        0.201825000000       4.979125000000       1.209666000000
        62    1       16.607391000000       6.119503000000       1.739952000000
        63    2        5.691308000000       2.591455000000       8.866755000000
        64    1        5.451007000000       3.469928000000       8.494375000000
        65    1        6.630755000000       2.648749000000       9.009893000000
        66    2        5.939435000000      16.808907000000       8.391605000000
        67    1        5.817608000000       0.530572000000       8.689441000000
        68    1        5.787232000000      16.274916000000       9.125013000000
        69    2       14.093319000000      10.577518000000      16.001074000000
        70    1       14.775678000000      11.199471000000      15.761117000000
        71    1       14.565804000000       9.758764000000      16.293045000000
        72    2        4.342793000000       9.805652000000      14.841726000000
        73    1        4.327348000000      10.217024000000      15.714557000000
        74    1        3.698860000000       9.106421000000      14.986791000000
        75    2       11.427474000000      10.368797000000       0.722379000000
        76    1       11.027110000000       9.702142000000       0.174214000000
        77    1       12.311382000000      10.612986000000       0.230005000000
        78    2        5.549288000000       5.614957000000      14.407013000000
        79    1        5.083271000000       6.371620000000      14.056666000000
        80    1        6.435862000000       5.889074000000      14.718866000000
        81    2       12.116643000000       3.881438000000       7.539620000000
        82    1       11.481861000000       3.982488000000       8.246540000000
        83    1       12.983954000000       3.949929000000       8.045506000000
        84    2       16.239588000000       1.033988000000       9.801867000000
        85    1       15.773037000000       0.866711000000       8.988789000000
        86    1       17.073288000000       1.475860000000       9.620184000000
        87    2       12.155034000000      16.872375000000      10.310713000000
        88    1       11.731037000000       0.247665000000      10.947990000000
        89    1       12.701462000000       0.234212000000       9.783532000000
        90    2       14.495214000000       1.570038000000      11.949906000000
        91    1       14.179491000000       0.670934000000      12.126207000000
        92    1       15.084796000000       1.496300000000      11.192575000000
        93    2       15.335555000000       8.058544000000      13.462096000000
        94    1       14.697865000000       8.756572000000      13.213058000000
        95    1       14.819039000000       7.186607000000      13.479967000000
        96    2       11.889225000000       6.403835000000      16.117640000000
        97    1       11.589619000000       5.526773000000      16.510349000000
        98    1       12.479288000000       6.143788000000      15.373292000000
        99    2        9.107899000000       1.458268000000       6.721227000000
       100    1        8.488114000000       0.676980000000       6.623961000000
       101    1       10.038539000000       1.148085000000       6.520056000000
       102    2       15.152650000000       1.880184000000       4.550742000000
       103    1       15.575410000000       2.630465000000       4.988293000000
       104    1       14.169653000000       2.076109000000       4.599538000000
       105    2        7.535940000000       7.141251000000      16.482468000000
       106    1        7.077542000000       7.424019000000       0.123380000000
       107    1        8.543000000000       7.291424000000      16.643753000000
       108    2        2.744845000000       6.201787000000       7.856719000000
       109    1        3.453691000000       5.556908000000       7.962964000000
       110    1        2.104850000000       5.873886000000       8.489525000000
       111    2        5.327133000000       4.950831000000       6.946306000000
       112    1        5.689640000000       5.669791000000       6.358875000000
       113    1        5.011667000000       4.299398000000       6.358668000000
       114    2        0.539844000000      13.428385000000       9.467826000000
       115    1       17.054317000000      13.048763000000      10.069982000000
       116    1        1.362238000000      13.081134000000       9.837402000000
       117    2       16.534464000000       7.808990000000      11.130482000000
       118    1       15.962529000000       7.442457000000      10.463723000000
       119    1       16.060484000000       7.878047000000      12.002127000000
       120    2       15.613403000000      14.974562000000      13.869083000000
       121    1       14.792242000000      15.502670000000      13.922523000000
       122    1       15.623981000000      14.132002000000      14.284360000000
       123    2       14.930358000000       4.678779000000       8.066267000000
       124    1       15.338549000000       4.515636000000       8.921984000000
       125    1       14.788854000000       5.621941000000       8.021633000000
       126    2        7.627685000000      11.739120000000      15.612681000000
       127    1        8.239592000000      11.969875000000      16.318226000000
       128    1        7.452176000000      10.744892000000      15.540356000000
       129    2        5.122934000000       9.428370000000       6.634900000000
       130    1        5.374708000000      10.319846000000       6.391641000000
       131    1        4.662026000000       9.543524000000       7.511653000000
       132    2       13.923400000000       6.095542000000       4.877060000000
       133    1       14.488645000000       6.818424000000       4.623584000000
       134    1       13.492919000000       5.752299000000       4.084776000000
       135    2       16.013132000000       4.234004000000       5.660469000000
       136    1       15.348731000000       4.936521000000       5.506804000000
       137    1       15.786969000000       4.128275000000       6.631667000000
       138    2        3.127459000000       4.569610000000       1.293370000000
       139    1        3.611759000000       5.350215000000       1.194492000000
       140    1        3.780543000000       4.039799000000       1.773785000000
       141    2        7.690740000000      17.088322000000       2.296338000000
       142    1        8.069467000000       0.723351000000       2.599866000000
       143    1        8.229994000000      16.839249000000       1.520513000000
       144    2        4.238510000000       3.528580000000       4.932771000000
       145    1        3.341496000000       3.812741000000       4.685349000000
       146    1        4.245407000000       2.570901000000       4.873105000000
       147    2        6.213191000000      13.973813000000      15.645722000000
       148    1        6.653476000000      13.052582000000      15.643676000000
       149    1        7.056146000000      14.588938000000      15.704410000000
       150    2        3.073623000000      16.950050000000      11.020539000000
       151    1        2.676595000000      16.742481000000      11.906770000000
       152    1        2.551603000000      16.442204000000      10.371617000000
       153    2       11.471506000000      10.308339000000      14.310986000000
       154    1       11.234989000000       9.681398000000      13.609604000000
       155    1       12.383984000000      10.048361000000      14.570723000000
       156    2        6.987019000000       7.456682000000       6.044355000000
       157    1        6.427795000000       8.250050000000       5.995387000000
       158    1        7.554859000000       7.623711000000       5.274879000000
       159    2        9.480710000000      15.421194000000       3.649015000000
       160    1        8.884884000000      16.070494000000       3.258402000000
       161    1       10.337011000000      15.735799000000       3.304533000000
       162    2        4.290351000000       2.954736000000      14.085217000000
       163    1        4.744998000000       2.462111000000      13.418392000000
       164    1        4.790252000000       3.736219000000      14.269516000000
       165    2       16.596521000000      14.080179000000       3.072350000000
       166    1       16.172886000000      14.184548000000       2.214277000000
       167    1       16.445488000000      13.167048000000       3.317038000000
       168    2        4.948526000000       0.526559000000       2.960653000000
       169    1        5.704225000000       0.106488000000       2.525493000000
       170    1        4.930845000000       0.144816000000       3.877775000000
       171    2       14.056684000000      12.109919000000       9.425790000000
       172    1       14.801856000000      11.454185000000       9.479952000000
       173    1       14.420739000000      12.884349000000       9.886320000000
       174    2       10.436720000000       0.430361000000      14.838131000000
       175    1       10.572032000000      17.013260000000      14.139983000000
       176    1       11.306936000000       0.879353000000      15.027847000000
       177    2        9.606906000000      10.222253000000       3.101177000000
       178    1       10.093236000000      10.495475000000       2.328485000000
       179    1        9.551367000000      11.076130000000       3.521150000000
       180    2        8.538097000000       4.720317000000      11.695123000000
       181    1        7.665920000000       5.130003000000      11.652949000000
       182    1        8.270380000000       3.813068000000      11.895159000000
       183    2        4.050188000000      14.538799000000       8.931909000000
       184    1        3.383103000000      15.069901000000       8.472170000000
       185    1        4.414999000000      15.049398000000       9.682689000000
       186    2       15.986146000000       8.236323000000      16.254929000000
       187    1       15.892320000000       8.267095000000      15.274925000000
       188    1       16.932833000000       8.439937000000      16.355343000000
       189    2        5.710504000000       5.405221000000      11.451450000000
       190    1        5.158315000000       4.761992000000      10.993398000000
       191    1        5.545538000000       5.171885000000      12.385531000000
       192    2        9.368187000000       2.385451000000       3.913465000000
       193    1       10.304383000000       2.367632000000       3.865752000000
       194    1        9.193040000000       2.229533000000       4.902981000000
       195    2        9.984068000000       6.383333000000       8.218677000000
       196    1        9.300918000000       5.711002000000       8.001904000000
       197    1        9.450935000000       7.196463000000       8.069415000000
       198    2        4.451326000000      11.536350000000      12.735190000000
       199    1        4.498609000000      10.807586000000      13.329674000000
       200    1        5.278973000000      11.658333000000      12.304193000000
       201    2       11.122483000000      13.225183000000      15.364779000000
       202    1       10.545372000000      13.327213000000      16.162445000000
       203    1       11.241559000000      12.253005000000      15.287223000000
       204    2        1.431708000000       4.294978000000      14.111551000000
       205    1        0.941019000000       3.971807000000      14.951702000000
       206    1        2.326936000000       3.874249000000      14.003209000000
       207    2        8.134087000000      12.943688000000       2.360356000000
       208    1        8.106119000000      13.769838000000       2.933684000000
       209    1        7.319030000000      12.446970000000       2.338564000000
       210    2       11.048747000000      15.457090000000      13.473104000000
       211    1       10.820572000000      14.829376000000      14.115438000000
       212    1       10.833042000000      15.059082000000      12.571688000000
       213    2        5.435390000000       3.213837000000       2.494826000000
       214    1        5.350404000000       2.213279000000       2.536467000000
       215    1        5.211308000000       3.431073000000       3.400096000000
       216    2       10.434828000000       5.762292000000       1.659748000000
       217    1        9.581983000000       5.653090000000       2.145098000000
       218    1       10.747644000000       6.679139000000       1.926417000000
       219    2        2.236447000000       8.650861000000       6.515360000000
       220    1        2.417993000000       7.736818000000       6.804939000000
       221    1        3.076100000000       8.905283000000       6.203868000000
       222    2        1.936015000000       8.510750000000      11.576650000000
       223    1        1.024685000000       8.268711000000      11.362991000000
       224    1        2.264380000000       9.157814000000      10.888736000000
       225    2       11.962584000000       3.684533000000      16.933315000000
       226    1       11.916694000000       3.257199000000      16.056768000000
       227    1       11.300590000000       3.288159000000       0.292304000000
       228    2       10.473510000000       2.038217000000      12.129458000000
       229    1       10.868629000000       2.282922000000      13.016927000000
       230    1        9.482223000000       1.801201000000      12.255964000000
       231    2        5.871117000000      14.990936000000      11.114244000000
       232    1        5.728942000000      15.175990000000      12.060933000000
       233    1        6.676816000000      15.467823000000      10.797559000000
       234    2       12.957845000000      14.039827000000       4.188372000000
       235    1       13.674706000000      13.428367000000       3.955329000000
       236    1       12.123111000000      13.595414000000       4.262057000000
       237    2       15.914783000000       4.129256000000      10.697472000000
       238    1       16.299788000000       3.653366000000      11.497684000000
       239    1       15.278382000000       4.767256000000      11.016068000000
       240    2       14.721996000000       6.819439000000       1.173422000000
       241    1       15.252067000000       7.379506000000       0.569857000000
       242    1       14.748656000000       5.930646000000       0.775779000000
       243    2        1.978189000000       8.349671000000      16.321150000000
       244    1        2.563144000000       8.252457000000      17.111662000000
       245    1        2.287566000000       7.799444000000      15.567463000000
       246    2        6.639028000000      13.885337000000       4.878075000000
       247    1        6.132299000000      13.430174000000       5.580987000000
       248    1        5.929803000000      14.166436000000       4.221121000000
       249    2        1.655777000000       1.780578000000       3.095708000000
       250    1        1.325448000000       2.632563000000       3.425655000000
       251    1        2.541593000000       1.634072000000       3.322473000000
       252    2       12.930324000000       4.633216000000       2.794931000000
       253    1       12.153864000000       4.868048000000       2.235914000000
       254    1       13.688861000000       4.647268000000       2.208996000000
       255    2        5.671270000000       0.314891000000      15.493433000000
       256    1        6.359030000000       0.988706000000      15.400416000000
       257    1        4.901157000000       0.781964000000      15.838947000000
       258    2        0.316991000000       2.694587000000      12.305397000000
       259    1        0.810896000000       3.331382000000      12.890506000000
       260    1       17.011490000000       2.173375000000      12.940868000000
       261    2       14.177806000000      10.954268000000       6.628158000000
       262    1       13.903982000000      11.492352000000       7.427906000000
       263    1       13.361718000000      10.410506000000       6.421930000000
       264    2        1.622010000000      11.844231000000       5.883467000000
       265    1        1.351607000000      11.359018000000       6.684866000000
       266    1        1.428868000000      11.281980000000       5.166364000000
       267    2       12.890437000000      10.448949000000       3.108625000000
       268    1       12.399463000000      10.435808000000       3.963259000000
       269    1       12.307529000000      10.784125000000       2.371278000000
       270    2        3.441135000000       4.294032000000      10.383572000000
       271    1        3.112908000000       3.448239000000      10.160746000000
       272    1        2.633871000000       4.821453000000      10.482953000000
       273    2        9.848462000000      11.221951000000      11.980643000000
       274    1       10.687375000000      11.239082000000      11.563682000000
       275    1        9.826085000000      11.985029000000      12.642826000000
       276    2        1.643546000000       0.770993000000       7.438398000000
       277    1        0.666710000000       0.654907000000       7.314059000000
       278    1        1.822667000000       1.237069000000       8.278928000000
       279    2       12.874028000000       0.716285000000      16.335649000000
       280    1       12.728706000000      16.936428000000      16.225603000000
       281    1       13.812460000000       0.886447000000      16.113613000000
       282    2       16.266678000000      10.408598000000       9.797069000000
       283    1       16.279371000000       9.708161000000      10.444839000000
       284    1        0.006048000000      10.451547000000       9.458298000000
       285    2        2.683183000000       7.023792000000      13.980797000000
       286    1        2.147455000000       6.242809000000      13.895038000000
       287    1        2.503185000000       7.440531000000      13.122156000000
       288    2       16.552799000000      16.976866000000       6.116063000000
       289    1       16.508045000000      16.060776000000       5.988645000000
       290    1       15.683339000000       0.162394000000       5.949910000000
       291    2        0.955116000000      11.417980000000      15.728609000000
       292    1        1.823286000000      11.658316000000      15.355800000000
       293    1        1.025505000000      10.485723000000      15.827646000000
       294    2        8.355743000000      16.318689000000      10.715980000000
       295    1        8.606261000000      17.199432000000      10.417318000000
       296    1        9.131497000000      15.775307000000      10.774889000000
       297    2       14.472906000000       3.008263000000      14.016487000000
       298    1       14.423130000000       2.460064000000      13.224376000000
       299    1       14.770019000000       2.610307000000      14.853559000000
       300    2       14.123900000000      14.611056000000      10.760097000000
       301    1       13.447408000000      15.358999000000      10.791109000000
       302    1       14.906570000000      14.958841000000      11.270455000000
       303    2        4.862784000000      15.456643000000      13.897893000000
       304    1        5.177871000000      16.305378000000      14.325588000000
       305    1        5.375361000000      14.812899000000      14.370979000000
       306    2        2.174098000000      14.426742000000       6.174903000000
       307    1        1.257532000000      14.723544000000       6.328345000000
       308    1        2.161077000000      13.466981000000       6.050169000000
       309    2        2.074664000000      13.224410000000       0.715591000000
       310    1        1.515041000000      13.938502000000       0.958260000000
       311    1        1.455583000000      12.701082000000       0.140279000000
       312    2        8.329341000000      13.066996000000      13.345275000000
       313    1        8.139488000000      12.597212000000      14.187094000000
       314    1        8.613949000000      13.963597000000      13.617516000000
       315    2        7.691737000000       1.978791000000      12.228616000000
       316    1        7.608885000000       1.838284000000      13.213470000000
       317    1        7.004890000000       1.422406000000      11.820184000000
       318    2        3.957462000000       0.049658000000       5.980458000000
       319    1        3.049113000000      17.159323000000       6.204109000000
       320    1        4.419523000000       0.291036000000       6.776869000000
       321    2       10.452836000000       5.458042000000      13.631844000000
       322    1        9.783705000000       5.228336000000      12.997817000000
       323    1       10.653801000000       6.361197000000      13.455337000000
       324    2       16.201506000000      10.676075000000       1.717250000000
       325    1       15.679538000000      10.995135000000       0.818500000000
       326    1       15.584851000000       9.871046000000       1.921464000000
       327    2       11.517722000000      13.967519000000       8.354333000000
       328    1       11.155491000000      14.555518000000       7.677478000000
       329    1       12.457667000000      13.849148000000       8.120103000000
       330    2       12.288713000000       2.972023000000       4.807004000000
       331    1       12.202782000000       3.356236000000       5.703710000000
       332    1       12.554522000000       3.734946000000       4.294668000000
       333    2       10.039744000000      16.801546000000       0.340438000000
       334    1       10.849468000000      16.282055000000       0.196061000000
       335    1       10.154502000000       0.366262000000      16.979702000000
       336    2        4.062176000000       9.088343000000       9.200796000000
       337    1        3.827963000000       8.138473000000       9.151157000000
       338    1        4.803788000000       9.144672000000       9.871080000000
       339    2        0.932586000000       3.952836000000      16.787767000000
       340    1        0.904720000000       3.073503000000      17.072376000000
       341    1        1.644040000000       4.338253000000       0.105303000000
       342    2        0.205623000000      10.017005000000       4.150893000000
       343    1       17.083229000000      10.569951000000       3.412153000000
       344    1       16.699585000000       9.367860000000       4.160319000000
       345    2       13.362922000000      16.529148000000      13.397493000000
       346    1       12.417266000000      16.200768000000      13.409534000000
       347    1       13.451691000000      17.083849000000      14.156581000000
       348    2        8.561816000000       1.656296000000       9.298062000000
       349    1        9.234663000000       2.144685000000       9.856133000000
       350    1        8.959686000000       1.493538000000       8.395338000000
       351    2       11.451193000000       7.730265000000       3.479887000000
       352    1       11.057227000000       8.579240000000       3.408232000000
       353    1       11.637607000000       7.663426000000       4.429654000000
       354    2       14.475314000000       4.174440000000       0.674496000000
       355    1       13.587124000000       3.916939000000       0.328785000000
       356    1       15.010285000000       3.430953000000       0.496029000000
       357    2       16.230902000000       8.901998000000       6.709015000000
       358    1       17.191933000000       8.936261000000       6.751086000000
       359    1       15.905253000000       9.774847000000       6.940114000000
       360    2        2.929160000000       9.146977000000       3.447637000000
       361    1        1.991657000000       9.270543000000       3.594938000000
       362    1        3.269823000000      10.088884000000       3.433223000000
       363    2        7.998963000000       1.655390000000      14.788045000000
       364    1        8.862111000000       1.163946000000      14.901426000000
       365    1        8.349827000000       2.492229000000      15.215637000000
       366    2        3.094022000000      12.988649000000      14.551700000000
       367    1        3.604553000000      13.582136000000      15.047009000000
       368    1        3.751544000000      12.596643000000      13.901041000000
       369    2        2.280634000000      16.392426000000      13.672280000000