 #  generated by VMD
  
         518  atoms
           4  atom types
 
      0.000000000000      17.200000000000  xlo xhi
      0.000000000000      17.200000000000  ylo yhi
      0.000000000000      17.200000000000  zlo zhi
 
Masses
 
            1   1.00800000              # H
            2   15.99900000             # O
            3   24.30500000             # Mg
            4   30.97376200             # P
 
Atoms # atomic
 
         1    3       13.890925000000       4.486565000000       6.487236000000
         2    2        6.042745000000       8.430801000000      13.648359000000
         3    4        6.862074000000       7.922034000000      14.778038000000
         4    2        6.120282000000       6.829988000000      15.642501000000
         5    2        8.329819000000       8.052066000000      14.974323000000
         6    2        6.587764000000      10.013320000000      15.815498000000
         7    4        7.844259000000      10.688247000000      16.399225000000
         8    2        7.528625000000      12.179492000000      16.477463000000
         9    2        8.387868000000      10.154495000000       0.606010000000
        10    2        9.035172000000      10.326541000000      15.393655000000
        11    3        1.276963000000      14.874728000000      14.890918000000
        12    2        6.172497000000      12.726351000000       1.621462000000
        13    1        0.285933000000       8.897554000000       9.578800000000
        14    1       12.305040000000      13.061880000000       4.996108000000
        15    2        1.484239000000       9.904308000000      13.259488000000
        16    1        1.306980000000       9.672861000000      14.228019000000
        17    1        5.386796000000      14.081599000000       8.103441000000
        18    2        9.213217000000      13.081935000000      10.181412000000
        19    1       10.721226000000       0.304915000000       7.078846000000
        20    1        8.196153000000       4.732004000000       7.569482000000
        21    2        3.605675000000       0.475035000000      14.267698000000
        22    1        5.957318000000       2.028997000000      13.420874000000
        23    1       11.825449000000       6.087118000000       1.394317000000
        24    2        6.307831000000       7.897822000000       6.328044000000
        25    1        2.411672000000      15.129744000000       0.243167000000
        26    1        7.395598000000       8.970092000000       1.271893000000
        27    2        4.417124000000       4.600369000000       3.704630000000
        28    1        9.115656000000      15.671385000000       7.571294000000
        29    1        4.065425000000       5.236297000000       4.315456000000
        30    2        1.980093000000       1.147412000000       1.395718000000
        31    1        1.693780000000       1.349505000000       0.491731000000
        32    1       16.810053000000      12.535473000000      10.715777000000
        33    2       11.715627000000      17.074251000000      10.881604000000
        34    1       11.311403000000       1.580683000000      14.112364000000
        35    1        1.005885000000       1.341957000000       9.752824000000
        36    2        3.626906000000      12.242589000000       1.491010000000
        37    1       14.769260000000      12.121072000000      10.383260000000
        38    1        4.584339000000      12.381897000000       1.501165000000
        39    2       13.410162000000       2.037158000000       2.299706000000
        40    1       12.846795000000       2.081874000000       1.519908000000
        41    1       12.051741000000       0.675624000000      11.388119000000
        42    2        9.715197000000       8.901505000000       8.691573000000
        43    1        9.013717000000       9.370173000000       8.145974000000
        44    1        9.286078000000      14.597275000000       8.581211000000
        45    2       17.059425000000      14.207586000000      13.408770000000
        46    1       14.329015000000       1.871213000000       1.963296000000
        47    1       15.752222000000       1.423774000000      15.351136000000
        48    2       11.978939000000      14.686677000000       8.315977000000
        49    1        1.145816000000       3.068877000000       4.398676000000
        50    1       16.170237000000      12.449110000000       5.540090000000
        51    2       13.557057000000       4.371429000000       8.734920000000
        52    1        1.964725000000      15.628663000000      10.179088000000
        53    1       12.963623000000       5.041465000000       8.998097000000
        54    2        5.601272000000      15.790112000000      13.233910000000
        55    1       16.464727000000      15.048156000000      16.752684000000
        56    1       10.339532000000      14.794012000000       2.423031000000
        57    2        1.383206000000       7.111969000000       1.336068000000
        58    1        1.451301000000       8.019078000000       1.707946000000
        59    1        2.327648000000       6.776481000000       1.341368000000
        60    2        5.002342000000       3.030996000000      14.865104000000
        61    1        4.962687000000       3.952390000000      14.933591000000
        62    1        5.532422000000       2.799993000000      15.632798000000
        63    2        1.520841000000      12.778337000000      15.515325000000
        64    1        0.849115000000      12.169950000000      15.279882000000
        65    1        8.237910000000       1.045680000000       6.810073000000
        66    2       13.063581000000      14.632459000000      17.020819000000
        67    1        7.239576000000       8.114803000000       2.499605000000
        68    1       12.301993000000      14.597750000000       0.456302000000
        69    2        1.574909000000       2.151399000000       9.920580000000
        70    1       12.817145000000       9.165003000000      13.497457000000
        71    1        8.648567000000       7.675781000000      12.336547000000
        72    2        0.218428000000       1.904904000000       6.014020000000
        73    1        8.506081000000      16.928137000000      12.065941000000
        74    1        0.263878000000       0.906895000000       5.867075000000
        75    2        2.868466000000       5.461325000000      13.331491000000
        76    1        9.656548000000       0.440872000000       8.257472000000
        77    1        8.139757000000      15.525539000000       1.933861000000
        78    2        2.787074000000      16.058241000000       3.610810000000
        79    1       11.438250000000       3.405116000000       5.489954000000
        80    1        3.531707000000      16.571358000000       3.329627000000
        81    2        8.119101000000       7.265189000000       3.976202000000
        82    1        3.169417000000      17.092890000000      14.913928000000
        83    1        0.620112000000       1.993709000000      15.462621000000
        84    2        2.191477000000      14.759121000000       1.125436000000
        85    1        2.540309000000      15.451115000000       1.689056000000
        86    1       15.983217000000       8.090244000000       4.720084000000
        87    2       13.680487000000       8.748185000000      15.261926000000
        88    1       16.195517000000      10.850239000000      15.874099000000
        89    1       10.893889000000       7.752501000000       0.465359000000
        90    2        6.536873000000       1.786033000000       9.901114000000
        91    1       13.560080000000      15.035575000000       5.166707000000
        92    1       11.866181000000      13.384296000000      13.359441000000
        93    2       10.964937000000      12.168826000000       6.048626000000
        94    1       14.081486000000      10.780597000000       8.018381000000
        95    1       16.553913000000      16.327198000000      15.846416000000
        96    2       10.522440000000      14.970260000000      14.004232000000
        97    1       12.915292000000      13.342918000000      10.330069000000
        98    1        9.720130000000      15.283360000000      13.462126000000
        99    2        8.430540000000      16.149445000000      12.584000000000
       100    1       12.755424000000       0.527809000000       2.977928000000
       101    1       12.804292000000       7.223536000000      14.681684000000
       102    2       13.461335000000       9.391233000000       1.339734000000
       103    1       11.675395000000      11.300636000000       7.451399000000
       104    1       10.055183000000       4.610572000000      12.841892000000
       105    2       16.850500000000      15.385190000000      15.929133000000
       106    1        3.285273000000       7.819278000000       4.664894000000
       107    1        9.134694000000       0.621092000000       3.966532000000
       108    2        7.808912000000       0.050444000000       1.167666000000
       109    1        8.130529000000      17.067579000000       0.243047000000
       110    1        7.024493000000       0.634963000000       1.002433000000
       111    2       16.647573000000      17.061222000000       9.356112000000
       112    1       16.242601000000      16.927990000000      10.239837000000
       113    1        5.333554000000      16.135439000000       6.218578000000
       114    2       11.567486000000       2.640581000000       0.400363000000
       115    1       14.711765000000       5.250914000000       3.845339000000
       116    1        1.060588000000      12.527063000000       2.159605000000
       117    2        2.662465000000       0.266877000000      11.780620000000
       118    1        9.116767000000       5.798898000000      15.393396000000
       119    1        7.724157000000       5.028592000000      13.114445000000
       120    2        2.827701000000       2.371763000000       7.477232000000
       121    1        1.610233000000       7.715737000000      15.846189000000
       122    1        3.096501000000       3.250031000000       7.132425000000
       123    2        9.714724000000       1.340405000000       3.834333000000
       124    1        0.669055000000      14.024207000000       2.028099000000
       125    1       16.042059000000      15.255836000000       2.785082000000
       126    2       11.777326000000      11.956538000000      10.603521000000
       127    1       11.808292000000      11.994834000000      11.567409000000
       128    1       10.939285000000      12.416189000000      10.400937000000
       129    2       15.035620000000       9.415730000000       3.845501000000
       130    1        0.309312000000      11.068795000000       6.641584000000
       131    1       15.145845000000      10.363261000000       3.827477000000
       132    2       17.116758000000       5.936639000000      13.967605000000
       133    1        0.786125000000       5.850834000000      13.487412000000
       134    1        7.498725000000      11.309362000000       4.240292000000
       135    2        3.191592000000      13.647364000000       5.314081000000
       136    1        4.205596000000      10.622964000000       5.797739000000
       137    1       15.281918000000       2.737640000000      11.796755000000
       138    2        0.385987000000      13.174389000000       2.429619000000
       139    1        1.776936000000       8.946642000000       9.175677000000
       140    1        1.592287000000      14.485142000000       7.963782000000
       141    2        8.463107000000      16.747202000000      15.734210000000
       142    1        1.638851000000      16.404020000000       5.092394000000
       143    1        0.012860000000      16.250319000000       9.347383000000
       144    2        8.602901000000       8.342177000000      11.628143000000
       145    1        9.721590000000       3.741590000000       9.075069000000
       146    1       14.190465000000       9.173114000000       0.747819000000
       147    2        4.526050000000       2.611768000000      11.773414000000
       148    1       12.112062000000      10.882191000000       8.824860000000
       149    1       10.773353000000       2.921503000000       0.983936000000
       150    2        8.467307000000      14.183738000000       5.033769000000
       151    1        4.543904000000      13.617426000000       9.378668000000
       152    1       14.752807000000      13.653324000000      15.116251000000
       153    2        5.454100000000      15.388398000000       2.708375000000
       154    1        2.893904000000       5.750768000000      14.266897000000
       155    1        8.867816000000       9.196249000000      15.281221000000
       156    2       16.299023000000      12.403181000000       6.491184000000
       157    1        7.802947000000       1.836373000000      14.171309000000
       158    1       12.551121000000      16.038977000000      14.469685000000
       159    2        8.611690000000      14.936796000000       7.973367000000
       160    1        3.828120000000       8.628747000000       1.317042000000
       161    1        1.600212000000       2.493747000000      12.234180000000
       162    2       16.610258000000      10.985718000000      15.011250000000
       163    1       16.003176000000      11.602266000000      14.585539000000
       164    1        0.668031000000       3.123389000000      13.325832000000
       165    2       11.785255000000       5.005177000000      12.409393000000
       166    1        5.998892000000      15.125823000000      13.805935000000
       167    1        1.068866000000       2.083041000000       6.421550000000
       168    2       16.420431000000       7.212036000000       4.830016000000
       169    1        4.864860000000      15.333662000000      11.786064000000
       170    1       14.770122000000      15.762546000000       4.446468000000
       171    2        8.988321000000      12.022533000000      13.233490000000
       172    1        9.227332000000      11.424180000000      14.001019000000
       173    1        9.018600000000      11.448303000000      12.461812000000
       174    2        8.660454000000       2.921816000000       1.526078000000
       175    1       13.489025000000       9.088758000000       5.574994000000
       176    1        8.646236000000       2.021264000000       1.862763000000
       177    2        4.130108000000       9.260951000000       9.198104000000
       178    1        5.809749000000      14.499489000000       2.299148000000
       179    1        4.007800000000       9.771710000000       8.409134000000
       180    2       16.102543000000      15.981673000000       3.474821000000
       181    1        9.414998000000      16.820478000000      15.440820000000
       182    1       15.700338000000       6.862623000000       3.171076000000
       183    2       12.278810000000      12.528292000000      13.246400000000
       184    1        5.912149000000      11.468821000000       4.134068000000
       185    1        8.383080000000      10.788383000000       6.718460000000
       186    2       14.738163000000       7.874995000000       8.697396000000
       187    1       15.132462000000       8.751668000000       8.480080000000
       188    1        9.799101000000       3.838813000000       5.668951000000
       189    2       10.250985000000      13.635598000000      16.525078000000
       190    1        6.147911000000       2.520464000000       9.291777000000
       191    1       11.953875000000      17.194450000000      15.277008000000
       192    2       12.782989000000      16.705519000000      15.160414000000
       193    1       12.142192000000       3.174697000000      12.294074000000
       194    1        2.989577000000      12.034692000000      11.168844000000
       195    2       14.611728000000       0.313174000000       7.436781000000
       196    1       12.803264000000      16.881781000000       4.347387000000
       197    1       12.496411000000       8.101726000000      11.513552000000
       198    2        8.393716000000       2.367220000000      14.744005000000
       199    1       10.106856000000       5.820454000000       8.558697000000
       200    1        2.527532000000      11.382154000000      13.251826000000
       201    2        5.035342000000      16.297413000000      17.036615000000
       202    1       13.960269000000      13.025750000000      13.843363000000
       203    1        5.325162000000      17.130981000000      16.775213000000
       204    2        8.724412000000       4.042354000000       7.125038000000
       205    1        5.369981000000       4.424627000000       3.909263000000
       206    1        8.156576000000       3.228925000000       7.093802000000
       207    2        4.513850000000      15.448868000000      10.891534000000
       208    1        6.616954000000      12.479635000000       0.770692000000
       209    1        2.022565000000       9.247429000000      12.808867000000
       210    2        5.813749000000       2.065896000000       0.358387000000
       211    1       14.214176000000      11.605281000000       0.615441000000
       212    1       14.031363000000       8.027547000000       9.323391000000
       213    2        6.938412000000       8.153046000000       1.586283000000
       214    1        0.237227000000       9.550889000000      12.277246000000
       215    1       10.778253000000      10.481500000000      15.457629000000
       216    2        5.088292000000      13.306972000000       8.614796000000
       217    1        3.935151000000      14.069060000000       5.797572000000
       218    1        6.580769000000       8.804379000000       6.454795000000
       219    2       15.533561000000       6.438649000000      11.714914000000
       220    1       13.046743000000       0.741401000000       8.017564000000
       221    1       16.018616000000       7.275349000000      11.440555000000
       222    2        7.637037000000       1.649428000000       6.389734000000
       223    1       12.920417000000      15.479230000000      16.483929000000
       224    1        6.659188000000       6.094625000000      16.134727000000
       225    2       11.315676000000      14.737591000000       2.430568000000
       226    1       14.441973000000      16.944012000000       6.618158000000
       227    1        4.012572000000      16.320293000000      11.026483000000
       228    2        6.897944000000       5.409254000000      13.507952000000
       229    1        7.590572000000       1.382652000000       5.493720000000
       230    1       14.293762000000       4.268861000000       9.365730000000
       231    2        4.185048000000       7.750700000000       1.205774000000
       232    1       10.269992000000      14.442862000000      14.756881000000
       233    1        8.974069000000       7.921691000000      10.790262000000
       234    2       15.505988000000      16.645744000000      11.896391000000
       235    1       16.873728000000       4.178883000000       2.119955000000
       236    1        3.788736000000       6.774610000000      16.644171000000
       237    2        8.658675000000       5.683265000000       1.462956000000
       238    1        5.732473000000       1.093945000000       6.866236000000
       239    1        8.269440000000       6.548576000000       1.471085000000
       240    2        5.064417000000       0.638674000000       7.356318000000
       241    1       15.949795000000       6.707519000000       5.465945000000
       242    1        3.721802000000       1.366832000000      14.675460000000
       243    2        3.996727000000       5.710021000000      10.705421000000
       244    1        5.912745000000      15.257237000000       5.078841000000
       245    1        3.154421000000       0.393345000000      12.626416000000
       246    2        0.419897000000      13.046808000000      11.046095000000
       247    1        6.039531000000      15.063157000000      16.241148000000
       248    1        5.014935000000       4.399202000000       8.249004000000
       249    2        6.207113000000       9.787278000000      11.043747000000
       250    1        3.540246000000      12.796717000000       5.069984000000
       251    1        2.868483000000      11.280289000000       7.058891000000
       252    2        6.517261000000      14.616296000000      15.475745000000
       253    1        1.081704000000       5.678841000000       8.502208000000
       254    1        8.782418000000       3.506547000000       2.286621000000
       255    2       15.054406000000       2.008883000000      12.464315000000
       256    1       15.584153000000       2.222635000000      13.290838000000
       257    1        4.090420000000      11.942218000000       7.666389000000
       258    2       12.051797000000      11.839934000000       0.917729000000
       259    1        1.278212000000      17.008574000000      13.174314000000
       260    1        8.248185000000      14.549503000000       3.212415000000
       261    2       15.623315000000      14.598152000000       1.019710000000
       262    1        9.066997000000      13.063092000000       1.668901000000
       263    1        6.303773000000       5.515373000000      12.671385000000
       264    2        6.541429000000       1.299750000000      13.255065000000
       265    1        2.392257000000       4.601044000000      13.317269000000
       266    1        8.253793000000      15.794168000000      15.592152000000
       267    2        7.846057000000      10.090934000000       7.211940000000
       268    1        4.668658000000      10.886616000000      15.966676000000
       269    1       11.518082000000      15.696858000000       2.545452000000
       270    2       14.824757000000      13.084649000000      14.362685000000
       271    1        2.719062000000      11.237207000000       9.873448000000
       272    1        4.333389000000       9.896091000000       4.385275000000
       273    2        3.721027000000       8.395686000000      12.129466000000
       274    1        3.642250000000       8.927773000000      11.316112000000
       275    1        3.044323000000      10.606772000000       2.097895000000
       276    2       15.167874000000      11.661139000000       0.594596000000
       277    1       13.259799000000       2.130411000000      12.782010000000
       278    1        8.420674000000       1.398751000000      10.285050000000
       279    2       15.489363000000      12.105837000000       3.682846000000
       280    1       14.665891000000      12.600277000000       3.861677000000
       281    1        9.573777000000      11.546070000000       3.282919000000
       282    2        1.438079000000       3.517785000000       3.593332000000
       283    1        0.698433000000      15.874720000000       6.183213000000
       284    1        2.534320000000       1.108667000000      11.376024000000
       285    2        2.459432000000      16.040226000000      15.964446000000
       286    1       14.527627000000       8.861789000000      15.721985000000
       287    1        2.021677000000      16.748493000000      16.430752000000
       288    2       14.118481000000      15.830931000000       5.183308000000
       289    1       15.890306000000       6.313694000000      12.659969000000
       290    1        1.445099000000       1.650659000000       2.036793000000
       291    2       12.716307000000       7.212957000000      11.101334000000
       292    1        6.760375000000      13.733068000000      15.767380000000
       293    1        7.643817000000       7.424232000000       4.834741000000
       294    2        1.470624000000       1.631636000000      15.851422000000
       295    1       12.620093000000      14.181511000000       8.813190000000
       296    1       11.954919000000       0.694976000000       9.158209000000
       297    2        9.738677000000       0.147070000000       7.309214000000
       298    1       12.405495000000       6.087514000000       3.790711000000
       299    1        7.025409000000      15.557801000000       9.019565000000
       300    2        1.130130000000       4.843650000000       9.966963000000
       301    1        1.879109000000       5.033422000000      10.590900000000
       302    1        1.117021000000       3.838662000000      10.061267000000
       303    2       15.523268000000       4.059422000000      10.574771000000
       304    1       15.700068000000       4.994345000000      10.939397000000
       305    1        3.475118000000       1.603802000000       2.220048000000
       306    2       15.214395000000       6.446242000000       2.396615000000
       307    1       15.571658000000      11.004456000000       1.142994000000
       308    1        9.121967000000       7.458798000000       4.056798000000
       309    2       13.026293000000      13.531008000000       4.496681000000
       310    1        6.862614000000       9.056175000000      11.270958000000
       311    1       13.085802000000       9.498056000000      15.452312000000
       312    2       10.483670000000       8.431899000000       3.776493000000
       313    1       10.943481000000       8.342469000000       2.920420000000
       314    1       11.112917000000       8.455958000000       4.525141000000
       315    2        7.128870000000       4.218290000000       4.294877000000
       316    1        7.506873000000       5.096125000000       4.444017000000
       317    1        7.426497000000       3.659543000000       5.028704000000
       318    2        6.779627000000      11.907432000000       4.018909000000
       319    1        3.679551000000       1.875601000000       7.321615000000
       320    1        5.568542000000      17.187042000000       7.927168000000
       321    2        8.605115000000      14.783414000000       2.336386000000
       322    1        5.975333000000       1.593437000000       3.811562000000
       323    1        0.965198000000       9.967321000000       7.574864000000
       324    2       13.129164000000      15.223376000000      12.599187000000
       325    1       12.407011000000      15.655869000000      12.113089000000
       326    1       13.849032000000      15.871060000000      12.672872000000
       327    2       15.402459000000      11.409038000000      10.475760000000
       328    1       15.483667000000      10.998461000000       9.596744000000
       329    1        9.531428000000       3.928292000000      11.592739000000
       330    2       12.437093000000       3.165216000000       6.148839000000
       331    1       10.660179000000       5.632731000000      15.368219000000
       332    1        9.947544000000       1.884368000000      10.181901000000
       333    2        0.921762000000       8.791513000000       8.815809000000
       334    1        1.018065000000      14.391023000000      10.260697000000
       335    1        8.537299000000       3.150129000000      14.207849000000
       336    2       10.313260000000       3.614566000000       9.851382000000
       337    1       12.547421000000      13.942005000000       3.692828000000
       338    1       14.585131000000       0.324319000000      15.448562000000
       339    2       11.635701000000      10.895698000000      15.374401000000
       340    1        4.607789000000       8.397892000000      12.517233000000
       341    1        0.153184000000      13.705744000000      12.577530000000
       342    2        1.186784000000      14.228339000000       7.084322000000
       343    1       11.173899000000      11.974473000000       1.334235000000
       344    1        1.873279000000      13.939040000000       6.491973000000
       345    2        7.201147000000       4.823876000000      16.657574000000
       346    1        7.870486000000       5.163162000000       0.112397000000
       347    1        6.742265000000      10.848252000000       9.912683000000
       348    2        9.571515000000      12.190507000000       1.667451000000
       349    1        6.648821000000      12.269465000000       2.400684000000
       350    1        9.023421000000      11.456224000000       1.289430000000
       351    2        2.516220000000      14.707758000000      13.217759000000
       352    1        0.508996000000       7.857640000000      14.695566000000
       353    1        6.144967000000      10.327928000000      11.856175000000
       354    2        3.948053000000       5.446353000000       7.048310000000
       355    1       16.111866000000      12.681387000000       3.153971000000
       356    1        4.374717000000       6.106272000000       6.449127000000
       357    2        6.992717000000      11.602867000000       9.308863000000
       358    1       11.228078000000       3.749545000000       9.509350000000
       359    1       13.498697000000       6.434126000000       2.733104000000
       360    2       12.405354000000       6.056999000000       6.211874000000
       361    1       16.129450000000       9.844871000000      11.471405000000
       362    1       11.734951000000       6.004220000000       6.964345000000
       363    2       16.562248000000       2.716527000000      14.688832000000
       364    1        5.973653000000      10.769694000000      14.176299000000
       365    1        4.267248000000       7.224371000000       3.559985000000
       366    2        3.783179000000      11.125235000000       7.339261000000
       367    1        9.690759000000      10.052119000000       3.924895000000
       368    1       12.374952000000      10.925918000000       1.136696000000
       369    2       11.310793000000       5.887735000000       0.605104000000