 #   Built with Packmol
  
         518  atoms
           4  atom types
 
      0.000000000000      17.200000000000  xlo xhi
      0.000000000000      17.200000000000  ylo yhi
      0.000000000000      17.200000000000  zlo zhi
 
Masses
 
            1   1.00800000              # H
            2   15.99900000             # O
            3   24.30500000             # Mg
            4   30.97376200             # P
 
Atoms # atomic
 
         1    4       -0.989718000000      -0.208301000000       0.042784000000
         2    2        0.680057000000      -1.069947000000       0.063856000000
         3    2       -0.485817000000       1.160145000000       0.609940000000
         4    2       -1.929912000000      -1.010953000000       0.843425000000
         5    2       -1.149143000000      -0.179211000000      -1.513380000000
         6    3        1.316114000000       0.712344000000       0.943832000000
         7    4        2.490466000000      -1.242470000000      -0.388655000000
         8    2        2.948699000000       0.137089000000       0.190968000000
         9    2        2.287050000000      -1.193697000000      -1.939820000000
        10    2        3.003681000000      -2.479665000000       0.224261000000
        11    3        0.400523000000      -1.141334000000      -1.999210000000
        12    2        0.740946000000       7.197684000000      -7.999746000000
        13    1        0.573757000000       6.949339000000      -7.089390000000
        14    1        1.267996000000       7.995599000000      -7.937092000000
        15    2       -2.861076000000      -5.903372000000      -7.868441000000
        16    1       -2.841825000000      -4.982043000000      -7.605463000000
        17    1       -1.940241000000      -6.133873000000      -7.999998000000
        18    2        6.466240000000       8.005367000000       1.946419000000
        19    1        6.200042000000       7.086225000000       1.894535000000
        20    1        7.417811000000       7.985489000000       1.834653000000
        21    2        2.749508000000      -2.865445000000       7.211865000000
        22    1        3.219199000000      -3.137258000000       8.001727000000
        23    1        2.016334000000      -3.479083000000       7.146453000000
        24    2        1.729112000000       5.533661000000      -5.425270000000
        25    1        1.396884000000       6.201779000000      -4.823923000000
        26    1        0.942347000000       5.102343000000      -5.761932000000
        27    2        7.248822000000      -7.076257000000       0.662226000000
        28    1        8.000898000000      -6.947240000000       1.241976000000
        29    1        7.018211000000      -7.999970000000       0.771539000000
        30    2       -7.648987000000      -5.656340000000       7.274632000000
        31    1       -7.375717000000      -6.565528000000       7.405310000000
        32    1       -7.363284000000      -5.446297000000       6.384333000000
        33    2        4.468059000000       4.898563000000       7.923130000000
        34    1        4.782263000000       5.801410000000       7.990343000000
        35    1        3.513390000000       4.978668000000       7.899343000000
        36    2       -2.335293000000      -6.044034000000       2.430430000000
        37    1       -2.441411000000      -6.857315000000       2.926099000000
        38    1       -3.190029000000      -5.899676000000       2.021818000000
        39    2       -6.929020000000      -3.918669000000      -4.730854000000
        40    1       -7.096431000000      -3.867624000000      -3.788653000000
        41    1       -7.186198000000      -3.058660000000      -5.066441000000
        42    2       -3.304826000000      -8.000048000000      -4.823969000000
        43    1       -2.768055000000      -7.917420000000      -4.034396000000
        44    1       -3.014205000000      -7.281163000000      -5.387102000000
        45    2       -0.572400000000      -7.999653000000       0.484885000000
        46    1       -0.822633000000      -7.152598000000       0.856714000000
        47    1        0.258416000000      -7.829022000000       0.038784000000
        48    2        5.292690000000      -5.967542000000       2.413613000000
        49    1        4.528876000000      -6.470013000000       2.126411000000
        50    1        5.934146000000      -6.632235000000       2.668744000000
        51    2        7.050441000000       3.304792000000       4.262444000000
        52    1        6.612557000000       3.923692000000       4.848614000000
        53    1        6.335130000000       2.871408000000       3.794594000000
        54    2       -3.904493000000      -5.780451000000       5.654741000000
        55    1       -3.531451000000      -4.922800000000       5.863669000000
        56    1       -4.793449000000      -5.747916000000       6.011214000000
        57    2        6.155203000000       4.542536000000      -6.809458000000
        58    1        5.770899000000       3.773780000000      -7.233367000000
        59    1        5.439712000000       5.179108000000      -6.774464000000
        60    2       -2.053538000000       4.962353000000      -0.324087000000
        61    1       -1.146714000000       4.786881000000      -0.068637000000
        62    1       -2.083841000000       5.910082000000      -0.462889000000
        63    2        6.208747000000       2.021789000000       0.915544000000
        64    1        7.049883000000       1.614797000000       1.128201000000
        65    1        5.554580000000       1.382763000000       1.202052000000
        66    2        7.987087000000      -0.222192000000       5.730489000000
        67    1        7.793653000000      -0.030316000000       4.811717000000
        68    1        7.686126000000       0.553846000000       6.205424000000
        69    2       -0.415582000000      -6.107880000000      -3.079178000000
        70    1        0.076727000000      -5.628986000000      -3.747511000000
        71    1       -1.081382000000      -6.589812000000      -3.571952000000
        72    2        5.139660000000      -4.974669000000      -2.190596000000
        73    1        5.036082000000      -5.896887000000      -2.429682000000
        74    1        5.534002000000      -4.569754000000      -2.964491000000
        75    2       -6.178754000000      -7.540530000000      -0.634642000000
        76    1       -6.519904000000      -7.999952000000       0.134074000000
        77    1       -6.853579000000      -7.660991000000      -1.304325000000
        78    2        4.817863000000      -5.665561000000      -5.124980000000
        79    1        4.859724000000      -5.957648000000      -6.036741000000
        80    1        5.713214000000      -5.768910000000      -4.799341000000
        81    2       -3.709515000000       4.803952000000       7.405098000000
        82    1       -2.870470000000       4.996854000000       7.826010000000
        83    1       -3.616537000000       5.150298000000       6.516405000000
        84    2        5.708183000000       2.652364000000       6.619744000000
        85    1        5.484734000000       1.724055000000       6.537961000000
        86    1        6.665870000000       2.665964000000       6.651758000000
        87    2       -5.854700000000      -1.874977000000      -3.579409000000
        88    1       -5.492298000000      -0.989414000000      -3.632495000000
        89    1       -5.086320000000      -2.447520000000      -3.566659000000
        90    2       -3.429995000000      -0.966519000000      -4.393245000000
        91    1       -2.564941000000      -0.556061000000      -4.353487000000
        92    1       -3.699990000000      -0.867441000000      -5.307391000000
        93    2       -0.612952000000      -7.836387000000      -6.562520000000
        94    1       -1.521002000000      -7.998254000000      -6.822558000000
        95    1       -0.575675000000      -6.892962000000      -6.398400000000
        96    2       -6.333007000000       2.539594000000       0.595053000000
        97    1       -6.865811000000       2.116092000000       1.269695000000
        98    1       -6.957322000000       3.063845000000       0.091300000000
        99    2       -3.333344000000      -0.466895000000       7.428544000000
       100    1       -3.749610000000       0.372115000000       7.225665000000
       101    1       -2.398643000000      -0.310889000000       7.285820000000
       102    2       -0.503436000000       7.552390000000       1.206667000000
       103    1       -1.191785000000       8.000984000000       0.713398000000
       104    1       -0.642015000000       6.622819000000       1.019401000000
       105    2        4.267457000000      -5.958409000000      -0.311212000000
       106    1        3.478122000000      -6.493355000000      -0.406918000000
       107    1        3.946145000000      -5.055562000000      -0.312418000000
       108    2        3.491700000000       3.731029000000       4.650553000000
       109    1        3.315784000000       2.895729000000       4.215003000000
       110    1        4.271544000000       3.564150000000       5.181937000000
       111    2       -6.374537000000       5.956042000000       6.953374000000
       112    1       -7.165417000000       6.481493000000       7.082933000000
       113    1       -6.432896000000       5.268073000000       7.617955000000
       114    2        1.225751000000      -3.858587000000      -7.554398000000
       115    1        2.104459000000      -3.503623000000      -7.696691000000
       116    1        1.236380000000      -4.708295000000      -7.997410000000
       117    2        0.936408000000      -5.657080000000       7.976025000000
       118    1        0.816308000000      -6.607137000000       8.012676000000
       119    1        0.045771000000      -5.303348000000       7.972270000000
       120    2       -0.713535000000      -4.029756000000      -1.781884000000
       121    1       -1.506861000000      -4.283745000000      -2.255697000000
       122    1       -0.249544000000      -3.448708000000      -2.386425000000
       123    2       -0.616605000000       7.100893000000       7.997205000000
       124    1       -1.234016000000       6.452875000000       7.654786000000
       125    1       -1.027153000000       7.945860000000       7.807848000000
       126    2        6.789254000000      -0.462031000000       1.871972000000
       127    1        6.652478000000      -0.078755000000       2.739594000000
       128    1        7.736635000000      -0.413907000000       1.735849000000
       129    2        5.095200000000      -3.197676000000       6.129093000000
       130    1        4.773031000000      -2.382635000000       6.516767000000
       131    1        4.890898000000      -3.869756000000       6.780970000000
       132    2       -4.194325000000       6.875256000000       0.276484000000
       133    1       -4.298982000000       7.827263000000       0.243243000000
       134    1       -4.669893000000       6.609713000000       1.064962000000
       135    2       -4.639350000000       7.648552000000       3.445065000000
       136    1       -4.547916000000       6.698070000000       3.363833000000
       137    1       -4.161624000000       8.000021000000       2.692322000000
       138    2        1.286955000000       5.683297000000       1.915508000000
       139    1        0.671602000000       5.637246000000       2.648716000000
       140    1        1.460971000000       6.619498000000       1.807704000000
       141    2       -7.601800000000      -2.963915000000       3.412009000000
       142    1       -7.032977000000      -2.193550000000       3.448812000000
       143    1       -6.999922000000      -3.700266000000       3.294085000000
       144    2        5.630672000000       5.809982000000       4.004642000000
       145    1        4.875437000000       5.230607000000       3.893651000000
       146    1        6.266720000000       5.500387000000       3.358136000000
       147    2       -7.361579000000       0.571811000000      -1.958651000000
       148    1       -7.755187000000      -0.261479000000      -2.221475000000
       149    1       -7.972786000000       1.236703000000      -2.279147000000
       150    2        5.897463000000      -1.609043000000      -6.394284000000
       151    1        5.021013000000      -1.979982000000      -6.506599000000
       152    1        6.396975000000      -2.302548000000      -5.960793000000
       153    2       -4.692563000000      -5.203492000000      -5.107097000000
       154    1       -4.822730000000      -6.039248000000      -5.557589000000
       155    1       -3.767551000000      -4.996930000000      -5.248730000000
       156    2        7.188866000000       8.002333000000       4.019238000000
       157    1        7.996777000000       7.852796000000       4.512485000000
       158    1        6.494368000000       7.955832000000       4.677939000000
       159    2        3.980659000000       6.776702000000       6.168157000000
       160    1        4.266589000000       5.907266000000       5.884080000000
       161    1        4.794719000000       7.249515000000       6.347404000000
       162    2        3.593142000000       7.589923000000      -2.314358000000
       163    1        2.940919000000       7.999385000000      -1.743989000000
       164    1        3.083590000000       7.011487000000      -2.883694000000
       165    2       -1.324650000000      -4.199389000000       3.061979000000
       166    1       -1.086490000000      -3.601365000000       2.352034000000
       167    1       -2.103867000000      -3.804556000000       3.456064000000
       168    2        5.185073000000      -0.815658000000       5.050072000000
       169    1        5.745648000000      -0.204115000000       5.529808000000
       170    1        5.766960000000      -1.215617000000       4.402140000000
       171    2       -4.301555000000      -3.455376000000      -6.722222000000
       172    1       -3.603287000000      -2.838182000000      -6.945535000000
       173    1       -4.982989000000      -2.911786000000      -6.324060000000
       174    2       -5.973226000000      -1.954369000000       1.309120000000
       175    1       -5.615143000000      -1.065854000000       1.335451000000
       176    1       -5.646199000000      -2.319766000000       0.485765000000
       177    2       -3.539715000000       7.795028000000       6.889133000000
       178    1       -3.814570000000       7.513815000000       6.015206000000
       179    1       -4.358479000000       7.999999000000       7.342991000000
       180    2        6.263903000000       3.169667000000      -5.095408000000
       181    1        6.525431000000       3.631427000000      -4.297438000000
       182    1        7.090838000000       2.955703000000      -5.529890000000
       183    2        5.030584000000      -4.184299000000       4.165300000000
       184    1        5.103051000000      -3.334072000000       3.729137000000
       185    1        5.876275000000      -4.606708000000       4.007970000000
       186    2       -4.897011000000       7.975978000000      -2.739414000000
       187    1       -4.592559000000       7.985658000000      -3.648034000000
       188    1       -4.588501000000       7.137543000000      -2.392682000000
       189    2       -7.315570000000       6.703674000000      -4.602515000000
       190    1       -7.991976000000       6.049833000000      -4.785112000000
       191    1       -6.564901000000       6.192345000000      -4.296878000000
       192    2       -5.031767000000      -1.868576000000       7.202529000000
       193    1       -4.269956000000      -2.405412000000       6.979311000000
       194    1       -5.746919000000      -2.498434000000       7.303583000000
       195    2       -0.111413000000       7.634331000000       5.563027000000
       196    1        0.055413000000       6.690907000000       5.585316000000
       197    1        0.476168000000       7.996918000000       6.227598000000
       198    2        7.131126000000      -2.352350000000       5.698957000000
       199    1        7.013977000000      -3.106054000000       5.118799000000
       200    1        8.045909000000      -2.406250000000       5.979389000000
       201    2       -6.447949000000      -3.726867000000      -1.000642000000
       202    1       -6.264205000000      -3.267940000000      -1.821617000000
       203    1       -7.246291000000      -3.313349000000      -0.668937000000
       204    2        0.534864000000       6.659414000000      -2.840042000000
       205    1        0.099834000000       6.303929000000      -2.063669000000
       206    1        0.965566000000       7.456915000000      -2.528813000000
       207    2       -7.451514000000      -4.824949000000       1.088913000000
       208    1       -6.557850000000      -4.479955000000       1.062097000000
       209    1       -7.340700000000      -5.776828000000       1.084279000000
       210    2       -3.581941000000      -4.353628000000       0.072110000000
       211    1       -4.000410000000      -5.212764000000       0.000385000000
       212    1       -2.689504000000      -4.545833000000       0.363638000000
       213    2        3.122925000000       4.173161000000       1.474036000000
       214    1        3.791274000000       3.493628000000       1.573626000000
       215    1        2.331488000000       3.695159000000       1.222011000000
       216    2        3.034524000000       6.804808000000       0.097416000000
       217    1        3.908511000000       7.195987000000       0.058665000000
       218    1        3.193827000000       5.860206000000       0.070500000000
       219    2        1.308818000000       4.164097000000       6.364549000000
       220    1        2.255985000000       4.025699000000       6.410320000000
       221    1        0.939077000000       3.280452000000       6.335592000000
       222    2        1.793765000000      -6.856760000000      -2.437590000000
       223    1        1.401233000000      -7.709863000000      -2.246516000000
       224    1        2.711762000000      -7.053495000000      -2.629818000000
       225    2        8.000827000000      -2.493118000000      -1.414331000000
       226    1        7.666841000000      -3.382582000000      -1.539564000000
       227    1        7.259445000000      -1.926331000000      -1.632233000000
       228    2       -5.819454000000       2.303216000000      -5.697670000000
       229    1       -5.270925000000       1.518729000000      -5.652174000000
       230    1       -5.423053000000       2.909014000000      -5.069776000000
       231    2       -7.478715000000       1.612426000000      -4.450200000000
       232    1       -7.386002000000       2.530919000000      -4.193005000000
       233    1       -6.722934000000       1.175778000000      -4.054587000000
       234    2       -4.428970000000      -8.002559000000       1.077681000000
       235    1       -4.673242000000      -7.089950000000       0.916898000000
       236    1       -3.505665000000      -7.961960000000       1.331128000000
       237    2       -1.657754000000       2.028826000000      -5.714921000000
       238    1       -2.559540000000       1.704569000000      -5.718717000000
       239    1       -1.118647000000       1.236649000000      -5.728902000000
       240    2       -2.022368000000       7.628706000000       3.045714000000
       241    1       -2.325068000000       7.936435000000       3.901313000000
       242    1       -1.971774000000       6.676210000000       3.138267000000
       243    2       -3.298682000000      -7.423240000000      -0.852665000000
       244    1       -3.720625000000      -7.958718000000      -1.526165000000
       245    1       -2.372731000000      -7.665698000000      -0.899630000000
       246    2        2.851379000000      -1.965615000000       2.716726000000
       247    1        3.791234000000      -1.940238000000       2.531240000000
       248    1        2.570068000000      -1.051788000000       2.652227000000
       249    2        0.901206000000       3.721604000000       3.765945000000
       250    1        0.344732000000       4.166990000000       4.406526000000
       251    1        0.295893000000       3.176199000000       3.261461000000
       252    2        7.481832000000       2.604835000000      -1.112913000000
       253    1        7.992276000000       3.194143000000      -1.670172000000
       254    1        6.666283000000       2.465089000000      -1.596364000000
       255    2        7.971484000000       1.399953000000      -3.672133000000
       256    1        7.994720000000       0.626883000000      -3.106274000000
       257    1        7.041564000000       1.526649000000      -3.865971000000
       258    2       -2.762828000000       7.755559000000      -4.827998000000
       259    1       -1.908359000000       7.980640000000      -4.457057000000
       260    1       -2.636824000000       6.884824000000      -5.207890000000
       261    2        1.927202000000       6.912977000000       7.450053000000
       262    1        2.655638000000       7.145270000000       8.027803000000
       263    1        1.610605000000       6.074589000000       7.789534000000
       264    2       -7.104255000000      -6.643252000000       4.212406000000
       265    1       -7.209389000000      -5.690761000000       4.203374000000
       266    1       -7.997717000000      -6.981841000000       4.286276000000
       267    2       -7.160878000000       7.632478000000       1.820498000000
       268    1       -6.275690000000       7.999462000000       1.832358000000
       269    1       -7.044290000000       6.736972000000       1.499792000000
       270    2        3.770060000000       3.542883000000      -5.046696000000
       271    1        4.131817000000       2.727474000000      -5.396860000000
       272    1        3.497220000000       4.035858000000      -5.821879000000
       273    2       -1.047754000000      -4.238470000000      -6.029249000000
       274    1       -0.113639000000      -4.133479000000      -5.842749000000
       275    1       -1.306651000000      -5.011978000000      -5.526226000000
       276    2        3.375776000000       0.437863000000       6.816227000000
       277    1        2.545230000000       0.842291000000       6.561262000000
       278    1        3.192211000000       0.027683000000       7.662650000000
       279    2       -4.054888000000      -0.269271000000       3.237321000000
       280    1       -4.882288000000       0.157836000000       3.010685000000
       281    1       -3.575263000000      -0.316386000000       2.409000000000
       282    2        3.352124000000      -5.269674000000       6.122224000000
       283    1        2.726424000000      -5.666768000000       6.729835000000
       284    1        2.958672000000      -5.395557000000       5.257513000000
       285    2        1.246836000000       7.318994000000       3.862746000000
       286    1        1.970889000000       7.770404000000       4.299039000000
       287    1        0.797301000000       8.007680000000       3.370806000000
       288    2       -0.431308000000      -0.200128000000       6.029159000000
       289    1       -0.434788000000       0.159330000000       5.140816000000
       290    1       -0.472617000000       0.569429000000       6.598764000000
       291    2        1.824627000000      -5.019106000000      -4.923378000000
       292    1        2.194552000000      -4.263624000000      -4.464272000000
       293    1        2.530797000000      -5.319509000000      -5.497361000000
       294    2       -7.316602000000      -0.868555000000      -5.382980000000
       295    1       -8.000401000000      -0.435004000000      -5.895648000000
       296    1       -6.528387000000      -0.792311000000      -5.922682000000
       297    2       -3.370887000000      -2.341940000000      -1.349517000000
       298    1       -4.018481000000      -1.659330000000      -1.167746000000
       299    1       -2.534555000000      -1.953985000000      -1.087955000000
       300    2       -1.141578000000       2.685584000000       7.501763000000
       301    1       -0.347994000000       2.486176000000       8.000597000000
       302    1       -1.017820000000       3.588809000000       7.206394000000
       303    2        7.047275000000      -5.020982000000      -0.213118000000
       304    1        6.847121000000      -5.621645000000      -0.932505000000
       305    1        8.000558000000      -5.063120000000      -0.124508000000
       306    2       -2.111471000000      -1.257563000000       5.100723000000
       307    1       -2.598332000000      -0.432129000000       5.099976000000
       308    1       -2.784777000000      -1.932500000000       5.003287000000
       309    2        0.753430000000      -2.384234000000       4.767253000000
       310    1        1.218243000000      -1.546309000000       4.752935000000
       311    1       -0.119453000000      -2.167948000000       5.098418000000
       312    2        5.173926000000      -2.289695000000      -0.615406000000
       313    1        5.711317000000      -3.082454000000      -0.581953000000
       314    1        5.015485000000      -2.147363000000      -1.549758000000
       315    2       -7.055739000000       0.388705000000      -7.701194000000
       316    1       -7.833606000000       0.863102000000      -7.998256000000
       317    1       -7.196563000000      -0.511453000000      -7.998281000000
       318    2        0.774224000000      -1.439869000000       8.007895000000
       319    1        0.614413000000      -1.792600000000       7.131301000000
       320    1        1.083366000000      -0.546040000000       7.853378000000
       321    2       -5.064869000000       5.613627000000      -6.198857000000
       322    1       -5.971712000000       5.873387000000      -6.367779000000
       323    1       -4.592171000000       6.442018000000      -6.105576000000
       324    2        1.868448000000      -7.749524000000       2.178868000000
       325    1        2.435359000000      -7.041764000000       2.488811000000
       326    1        1.016862000000      -7.331647000000       2.042650000000
       327    2       -4.936675000000      -0.029037000000      -7.324114000000
       328    1       -4.362732000000       0.340101000000      -7.996945000000
       329    1       -4.676740000000      -0.949645000000      -7.266754000000
       330    2       -1.638814000000       2.266289000000       5.415768000000
       331    1       -1.997329000000       2.992618000000       4.903626000000
       332    1       -0.691868000000       2.322025000000       5.279528000000
       333    2       -7.573465000000      -0.592198000000       0.303523000000
       334    1       -7.997732000000      -1.355272000000       0.698606000000
       335    1       -7.736559000000       0.119977000000       0.923670000000
       336    2        7.227586000000      -2.427600000000       8.018193000000
       337    1        6.326314000000      -2.753304000000       8.017485000000
       338    1        7.767921000000      -3.218936000000       8.004021000000
       339    2        1.675971000000       4.991806000000      -1.303798000000
       340    1        2.068762000000       4.193368000000      -1.659590000000
       341    1        0.901929000000       4.686323000000      -0.828494000000
       342    2        0.059272000000      -6.226756000000       5.981191000000
       343    1        0.605079000000      -5.457331000000       5.812503000000
       344    1        0.583040000000      -6.965152000000       5.666846000000
       345    2       -4.207172000000       1.970142000000      -1.767404000000
       346    1       -3.500350000000       1.329338000000      -1.677142000000
       347    1       -4.172341000000       2.236730000000      -2.687238000000
       348    2       -5.422798000000       3.526234000000       6.733859000000
       349    1       -6.320125000000       3.243998000000       6.550771000000
       350    1       -4.938491000000       2.710536000000       6.869723000000
       351    2       -5.111159000000       2.902530000000       3.627851000000
       352    1       -4.493192000000       3.632349000000       3.565747000000
       353    1       -5.571293000000       3.048488000000       4.455708000000
       354    2       -1.934500000000       5.199861000000      -3.381236000000
       355    1       -1.615430000000       4.967574000000      -2.507959000000
       356    1       -1.372176000000       5.925515000000      -3.656175000000
       357    2       -0.498669000000       5.078826000000      -7.972105000000
       358    1        0.442641000000       4.916529000000      -7.894836000000
       359    1       -0.891704000000       4.204929000000      -7.986342000000
       360    2        6.131215000000       5.000429000000       1.223236000000
       361    1        5.243646000000       5.311429000000       1.039182000000
       362    1        6.008242000000       4.111733000000       1.560092000000
       363    2       -4.124967000000       5.319839000000      -3.520589000000
       364    1       -4.097425000000       4.875156000000      -4.369042000000
       365    1       -5.001975000000       5.134416000000      -3.181693000000
       366    2        7.179246000000      -0.820730000000      -4.545812000000
       367    1        7.235851000000      -0.251874000000      -5.314950000000
       368    1        8.066907000000      -1.165161000000      -4.437182000000
       369    2       -0.512974000000       3.686861000000      -4.119635000000