ITEM: TIMESTEP
0
ITEM: NUMBER OF ATOMS
518
ITEM: BOX BOUNDS pp pp pp
0.0000000000000000e+00 1.7199999999999999e+01
0.0000000000000000e+00 1.7199999999999999e+01
0.0000000000000000e+00 1.7199999999999999e+01
ITEM: ATOMS id type xs ys zs
12 2 0.0353998 0.142512 0.0854555
14 1 0.0171451 0.107815 0.0421072
21 2 0.160985 0.241879 0.0306274
23 1 0.19415 0.22352 0.0706145
153 2 0.0964754 0.0612201 0.21576
208 1 0.103648 0.00662151 0.20302
236 1 0.0704262 0.0818862 0.170481
354 2 0.237427 0.170284 0.1546
356 1 0.195057 0.135264 0.166822
370 1 0.0748437 0.178018 0.0672844
475 1 0.102392 0.0196757 0.00732564
57 2 0.397131 0.240632 0.163447
155 1 0.407187 0.011261 0.231574
160 1 0.450243 0.174011 0.0957644
253 1 0.344508 0.24854 0.149626
297 2 0.462666 0.138173 0.053395
355 1 0.267204 0.137862 0.121092
358 1 0.445614 0.0380423 0.0644905
488 2 0.281832 0.0851799 0.0168314
489 1 0.282978 0.0310403 0.028303
516 1 0.439061 0.158982 0.00576099
125 1 0.651448 0.234787 0.00413715
142 1 0.535374 0.130554 0.228529
204 2 0.611582 0.0719626 0.0470218
205 1 0.606918 0.0142883 0.0370662
206 1 0.559841 0.0970628 0.0485047
301 1 0.616239 0.226277 0.171245
393 2 0.61864 0.171992 0.180094
394 1 0.623583 0.142081 0.133245
119 1 0.942519 0.153138 0.123856
197 1 0.826236 0.23134 0.138477
258 2 0.89307 0.153961 0.154868
260 1 0.860693 0.111938 0.13629
397 1 0.769738 0.0213966 0.0857876
438 2 0.809854 0.050813 0.0618323
501 1 0.781842 0.0955832 0.0392841
36 2 0.0247901 0.329975 0.189657
262 1 0.150398 0.350757 0.0465934
265 1 0.0630199 0.357588 0.160632
348 2 0.154011 0.399311 0.069333
349 1 0.194955 0.396171 0.105098
410 1 0.0468103 0.445466 0.0127027
10 2 0.431352 0.373979 0.231862
58 1 0.413785 0.285999 0.189073
177 2 0.263282 0.42305 0.204002
193 1 0.376534 0.407285 0.0535812
326 1 0.289615 0.381303 0.230838
446 1 0.417599 0.419144 0.138284
463 1 0.29412 0.469717 0.201667
476 2 0.417099 0.433554 0.0830453
5 2 0.64829 0.453062 0.233517
54 2 0.543412 0.321632 0.108344
55 1 0.506237 0.334348 0.0653187
56 1 0.522582 0.352108 0.152091
178 1 0.748854 0.499173 0.0352419
196 1 0.740857 0.263344 0.117195
201 2 0.705634 0.461939 0.021244
202 1 0.677231 0.445217 0.0679512
276 2 0.666032 0.275164 0.0410356
278 1 0.619668 0.298058 0.0620076
299 1 0.692712 0.496012 0.248014
87 2 0.900387 0.345553 0.0742877
88 1 0.851233 0.360447 0.093858
89 1 0.89696 0.293881 0.0481331
100 1 0.979093 0.336081 0.157193
106 1 0.762659 0.322973 0.216415
146 1 0.966433 0.400393 0.0255579
195 2 0.785203 0.269601 0.149365
11 3 0.0298168 0.744245 0.169301
16 1 0.0973726 0.645136 0.0804256
234 2 0.125667 0.728852 0.248165
239 1 0.179027 0.74645 0.241299
261 2 0.0657624 0.631885 0.126499
263 1 0.097613 0.597611 0.160164
309 2 0.170572 0.629711 0.0111877
310 1 0.218734 0.610978 0.0329503
392 1 0.189136 0.504033 0.249576
107 1 0.330738 0.674035 0.245611
174 2 0.401611 0.734589 0.105628
216 2 0.333725 0.597144 0.0577903
238 1 0.453234 0.749488 0.0829665
279 2 0.356901 0.566651 0.227511
335 1 0.498573 0.541727 0.12833
373 1 0.409669 0.565988 0.204815
439 1 0.356826 0.550621 0.0769594
456 1 0.352654 0.639898 0.094426
123 2 0.70778 0.680558 0.024933
171 2 0.536761 0.561258 0.00431866
172 1 0.591244 0.555528 0.0209664
233 1 0.745736 0.638359 0.0313641
237 2 0.547381 0.747347 0.0338102
259 1 0.740877 0.747223 0.107071
374 1 0.591812 0.729068 0.0602756
383 1 0.728417 0.731787 0.237395
515 2 0.501117 0.559718 0.179531
517 1 0.514505 0.518117 0.211753
15 2 0.892716 0.564405 0.214914
45 2 0.926418 0.711718 0.10949
46 1 0.92137 0.720502 0.0558838
47 1 0.883968 0.743194 0.126427
138 2 0.828676 0.567445 0.0500183
139 1 0.850721 0.569398 0.100113
140 1 0.867807 0.55733 0.0128592
226 1 0.850064 0.551024 0.247046
272 1 0.926371 0.521156 0.220791
93 2 0.202529 0.920638 0.24639
94 1 0.21556 0.877804 0.212758
159 2 0.00123198 0.857958 0.204011
285 2 0.096387 0.796254 0.0818837
287 1 0.0959597 0.767527 0.0327284
291 2 0.0625595 0.947817 0.0698172
292 1 0.0747924 0.888751 0.067021
293 1 0.0169278 0.957214 0.0380095
312 2 0.235309 0.813786 0.138447
314 1 0.183132 0.802947 0.107991
419 1 0.0112367 0.902058 0.169733
67 1 0.287547 0.894991 0.0858693
95 1 0.353832 0.949399 0.067144
210 2 0.41711 0.83336 0.243946
211 1 0.471925 0.827247 0.246169
212 1 0.404636 0.889257 0.242236
270 2 0.300125 0.935832 0.0503627
313 1 0.25814 0.762313 0.14614
327 2 0.438866 0.978977 0.0698008
328 1 0.477513 0.966311 0.107327
445 1 0.391218 0.767235 0.151152
147 2 0.553108 0.957362 0.191718
148 1 0.559234 0.905709 0.217609
149 1 0.539405 0.99704 0.227746
191 1 0.55482 0.803135 0.0291435
470 2 0.613886 0.907047 0.021079
471 1 0.669088 0.915117 0.0289876
482 2 0.708946 0.944125 0.143573
483 1 0.653091 0.947228 0.152692
484 1 0.735295 0.942023 0.193575
268 1 0.758202 0.830586 0.13276
372 2 0.773362 0.776345 0.14175
112 1 0.20783 0.248882 0.301519
129 2 0.162387 0.0902753 0.375072
130 1 0.190339 0.137808 0.38187
209 1 0.151483 0.0911749 0.3196
250 1 0.111967 0.0113341 0.427077
306 2 0.0901447 0.243788 0.316351
468 1 0.00840936 0.0152751 0.293051
71 1 0.397782 0.031471 0.458524
111 2 0.263505 0.244966 0.310913
113 1 0.284971 0.213031 0.269255
357 2 0.348562 0.24796 0.461203
43 1 0.588212 0.237138 0.345089
85 1 0.642458 0.113515 0.444516
240 2 0.671282 0.0652984 0.448335
242 1 0.698458 0.0605844 0.396331
243 2 0.514928 0.0850684 0.257739
244 1 0.52567 0.108084 0.309423
411 2 0.586954 0.206906 0.395413
412 1 0.537032 0.215236 0.417177
485 2 0.734745 0.103063 0.302575
486 1 0.69882 0.119205 0.259927
38 1 0.931888 0.178885 0.252731
40 1 0.893742 0.0418978 0.421024
109 1 0.886773 0.111623 0.366754
167 1 0.839703 0.13988 0.490931
321 2 0.942742 0.175357 0.310404
322 1 0.997268 0.186229 0.316279
333 2 0.859512 0.0836142 0.405775
400 1 0.797542 0.0181202 0.291611
487 1 0.75854 0.153646 0.31702
162 2 0.108346 0.382538 0.433414
164 1 0.16158 0.401198 0.441864
307 1 0.0762915 0.260106 0.264249
386 1 0.0869593 0.285127 0.352231
403 1 0.0866628 0.380745 0.484768
464 2 0.00844337 0.464576 0.281436
465 1 0.00681169 0.412644 0.264496
7 4 0.446174 0.391835 0.31599
8 2 0.461275 0.309796 0.357454
9 2 0.385123 0.440374 0.353337
65 1 0.311587 0.250714 0.419822
267 2 0.260559 0.421863 0.471918
269 1 0.301041 0.420395 0.431874
436 1 0.425898 0.297542 0.399131
2 2 0.610059 0.311744 0.285649
3 4 0.646456 0.387189 0.296214
4 2 0.681607 0.417713 0.372461
6 2 0.531179 0.432293 0.333037
241 1 0.614535 0.28284 0.477204
281 1 0.531778 0.466655 0.375148
286 1 0.658244 0.384086 0.414762
324 2 0.635419 0.334601 0.480984
49 1 0.861323 0.313419 0.429049
228 2 0.763124 0.355958 0.266619
405 2 0.898155 0.472595 0.43203
406 1 0.894771 0.420905 0.445984
407 1 0.924505 0.498088 0.476165
466 1 0.992699 0.454027 0.334441
491 2 0.870464 0.309859 0.371871
492 1 0.898397 0.263532 0.363364
505 1 0.806975 0.332085 0.308696
39 2 0.188642 0.567077 0.41993
64 1 0.122379 0.595434 0.498949
131 1 0.209347 0.516787 0.43855
229 1 0.168982 0.557764 0.367198
347 1 0.127846 0.680345 0.278145
390 2 0.147281 0.540559 0.264904
391 1 0.104239 0.507185 0.280892
497 2 0.0398 0.747057 0.412663
66 2 0.276507 0.748675 0.440478
271 1 0.47907 0.677079 0.295506
280 1 0.365265 0.540478 0.277995
290 1 0.274207 0.717279 0.392494
294 2 0.303351 0.720017 0.257258
396 2 0.448095 0.675598 0.341129
451 1 0.271665 0.711917 0.484446
502 1 0.42991 0.730007 0.343928
60 2 0.728943 0.745543 0.419995
336 2 0.718414 0.585231 0.431626
342 2 0.548908 0.56724 0.432595
343 1 0.50885 0.599267 0.411382
344 1 0.545932 0.57363 0.491532
346 1 0.670371 0.56811 0.451318
366 2 0.736183 0.553074 0.276261
368 1 0.717965 0.602427 0.256702
381 2 0.696357 0.70695 0.275842
382 1 0.713711 0.722785 0.326394
404 1 0.719774 0.643733 0.430835
418 1 0.722797 0.552373 0.33583
114 2 0.963086 0.709049 0.264704
115 1 0.976465 0.718852 0.31904
116 1 0.949695 0.655694 0.256189
48 2 0.167615 0.856236 0.399961
50 1 0.204675 0.817375 0.420668
163 1 0.24481 0.957319 0.253314
249 2 0.0924124 0.969617 0.457347
251 1 0.122034 0.924762 0.439153
469 1 0.00689041 0.961262 0.367149
498 1 0.0791117 0.785891 0.398413
499 1 0.0213743 0.770306 0.459969
504 1 0.180511 0.867428 0.346428
69 2 0.387513 0.994596 0.41644
70 1 0.370373 0.948495 0.448705
145 1 0.498558 0.991996 0.390527
184 1 0.331837 0.825701 0.477271
274 1 0.374227 0.990533 0.312085
384 2 0.363497 0.984523 0.255913
518 1 0.333983 0.766026 0.258241
68 1 0.682426 0.770408 0.438273
126 2 0.581323 0.818325 0.447297
127 1 0.572555 0.87555 0.439342
151 1 0.586658 0.9957 0.406206
252 2 0.565861 0.806488 0.27857
254 1 0.611901 0.769861 0.273209
319 1 0.548435 0.804756 0.489884
408 2 0.549152 0.968177 0.37571
443 1 0.564808 0.81665 0.33466
161 1 0.995361 0.888341 0.250641
176 1 0.766044 0.788581 0.425855
215 1 0.804239 0.906405 0.375974
219 2 0.809075 0.873308 0.41799
221 1 0.850141 0.889372 0.450582
311 1 0.86928 0.961332 0.284346
398 1 0.990287 0.962919 0.499377
399 2 0.81073 0.963557 0.287791
467 2 0.981032 0.973171 0.317274
13 1 0.0999507 0.240937 0.746807
136 1 0.101906 0.0517139 0.661123
186 2 0.16499 0.0796907 0.57521
187 1 0.134868 0.0560905 0.53338
188 1 0.203193 0.0432727 0.588265
288 2 0.0597558 0.0415633 0.693534
303 2 0.143555 0.228946 0.644178
304 1 0.152899 0.176691 0.626067
316 1 0.339355 0.069334 0.558199
378 2 0.470198 0.130767 0.668897
379 1 0.464019 0.182495 0.685453
380 1 0.434194 0.128196 0.624141
455 2 0.379117 0.103618 0.541301
457 1 0.351319 0.13658 0.504896
124 1 0.683753 0.202448 0.639659
231 2 0.692243 0.1698 0.595675
235 1 0.622843 0.0429882 0.747791
332 1 0.708403 0.00153105 0.537817
345 2 0.60057 0.0297169 0.696646
431 1 0.670286 0.120647 0.610372
514 1 0.556631 0.0627837 0.686176
82 1 0.906982 0.164006 0.731125
84 2 0.839465 0.165389 0.539569
175 1 0.786485 0.164023 0.564921
180 2 0.914744 0.0929448 0.662549
181 1 0.900067 0.105477 0.60728
182 1 0.967775 0.0732683 0.661164
414 2 0.797672 0.0207925 0.740902
416 1 0.840685 0.0259844 0.706651
257 1 0.234972 0.296252 0.618835
296 1 0.027243 0.482536 0.693726
305 1 0.103444 0.256477 0.611733
432 2 0.0740663 0.455104 0.683973
434 1 0.0778995 0.416705 0.722884
512 2 0.035588 0.345998 0.565652
513 1 0.0384302 0.386682 0.602804
96 2 0.32688 0.344555 0.747895
128 1 0.275856 0.400757 0.523192
213 2 0.473303 0.292045 0.724811
255 2 0.282334 0.32008 0.600345
256 1 0.300666 0.338642 0.650636
359 1 0.326293 0.266678 0.509597
364 1 0.420981 0.319435 0.731821
42 2 0.572503 0.369286 0.625409
44 1 0.618156 0.366922 0.65736
277 1 0.533916 0.348327 0.664217
325 1 0.625346 0.363474 0.528301
462 1 0.730306 0.423141 0.734242
17 1 0.861921 0.258249 0.540337
135 2 0.869145 0.31397 0.543767
137 1 0.823362 0.330277 0.57092
152 1 0.815422 0.409372 0.743175
409 1 0.982728 0.33283 0.567396
461 2 0.777321 0.433786 0.70783
19 1 0.00301767 0.585251 0.545616
103 1 0.163275 0.676731 0.737308
220 1 0.098447 0.661407 0.565579
230 1 0.211185 0.550106 0.715126
300 2 0.0920156 0.605583 0.547486
339 2 0.193057 0.595183 0.683659
341 1 0.154408 0.563614 0.655138
308 1 0.48236 0.626293 0.608794
402 2 0.441245 0.666615 0.618408
413 1 0.433435 0.662346 0.675852
506 2 0.286646 0.678276 0.575099
507 1 0.251567 0.652031 0.609382
508 1 0.340504 0.66629 0.588719
141 2 0.5839 0.717532 0.740244
331 1 0.745839 0.688745 0.63823
350 1 0.606983 0.56142 0.630587
351 2 0.566136 0.558075 0.589125
353 1 0.539594 0.507876 0.6
447 2 0.665522 0.560847 0.706909
448 1 0.638849 0.60685 0.728737
1 3 0.779381 0.556437 0.696664
18 2 0.945438 0.574427 0.549214
20 1 0.921413 0.624779 0.538837
51 2 0.902023 0.541358 0.696773
53 1 0.919514 0.56066 0.645075
97 1 0.924541 0.582763 0.73009
120 2 0.877016 0.737467 0.565376
121 1 0.84745 0.704106 0.603925
330 2 0.792915 0.669108 0.662015
360 2 0.776723 0.512772 0.571235
361 1 0.826638 0.513701 0.548503
362 1 0.751374 0.550158 0.536276
388 1 0.825838 0.736754 0.73035
30 2 0.209919 0.835625 0.628249
31 1 0.0320012 0.762015 0.621107
32 1 0.211752 0.815498 0.680418
289 1 0.0453793 0.984942 0.689149
363 2 0.013045 0.877049 0.700797
477 1 0.111316 0.790161 0.600298
503 2 0.0750972 0.750952 0.587745
63 2 0.492053 0.809077 0.577937
183 2 0.346767 0.869035 0.507274
232 1 0.48661 0.752477 0.596692
302 1 0.392775 0.855663 0.538261
338 1 0.290843 0.945539 0.570806
395 1 0.497944 0.843128 0.624433
401 1 0.250757 0.807535 0.598366
435 2 0.294556 0.990076 0.599105
437 1 0.279585 0.975253 0.651131
33 2 0.517677 0.886792 0.724369
133 1 0.694062 0.865163 0.711043
134 1 0.556961 0.925239 0.710323
143 1 0.567342 0.769763 0.721654
165 2 0.711076 0.9708 0.582743
166 1 0.686038 0.997216 0.626509
423 2 0.675016 0.831633 0.614036
424 1 0.673572 0.885015 0.596064
425 1 0.633313 0.803078 0.594107
122 1 0.846381 0.760332 0.523381
365 1 0.957598 0.876628 0.690255
369 2 0.933807 0.969833 0.504204
371 1 0.919697 0.94818 0.55688
415 1 0.774207 0.969678 0.737463
452 2 0.858346 0.904277 0.626395
453 1 0.803875 0.925766 0.615664
454 1 0.85694 0.849943 0.609707
22 1 0.18254 0.225566 0.979262
98 1 0.0610988 0.178027 0.844351
473 2 0.12974 0.0509952 0.966793
474 1 0.0927333 0.0739584 0.928652
490 1 0.231809 0.0806842 0.989944
494 2 0.0444835 0.126449 0.858713
496 1 0.0426173 0.0972752 0.811101
509 2 0.242934 0.246801 0.876315
510 1 0.20061 0.23842 0.839219
72 2 0.416316 0.0633573 0.798686
73 1 0.43533 0.0827403 0.75458
74 1 0.380566 0.0205653 0.793922
222 2 0.367862 0.162146 0.909951
224 1 0.338677 0.134468 0.949861
298 1 0.387026 0.122272 0.877104
511 1 0.282328 0.205384 0.869493
24 2 0.730526 0.13602 0.959872
25 1 0.685104 0.108803 0.97476
26 1 0.731413 0.145199 0.906
108 2 0.651235 0.0438351 0.853094
110 1 0.621728 0.0888579 0.87344
156 2 0.581039 0.188161 0.909079
157 1 0.552938 0.226797 0.938473
158 1 0.600371 0.219695 0.870929
179 1 0.621855 0.00116721 0.871696
52 1 0.818503 0.0216694 0.826282
81 2 0.898846 0.195623 0.778851
83 1 0.930919 0.180007 0.822291
99 2 0.882885 0.198542 0.961454
101 1 0.831456 0.176211 0.953322
154 1 0.914837 0.155063 0.975739
189 2 0.830275 0.0261476 0.880988
190 1 0.778541 0.038713 0.901061
246 2 0.752754 0.175249 0.803382
247 1 0.807548 0.195964 0.798691
329 1 0.755755 0.124693 0.776911
420 2 0.965995 0.0552552 0.974536
421 1 0.984342 0.0605558 0.918993
422 1 0.918714 0.0248332 0.963538
59 1 0.169424 0.437402 0.964147
77 1 0.0733274 0.300193 0.809746
207 2 0.105466 0.250621 0.802502
218 1 0.0400996 0.401112 0.871376
225 2 0.0264088 0.379382 0.8193
377 1 0.216332 0.474162 0.827943
444 2 0.158493 0.47072 0.920495
35 1 0.292011 0.306023 0.770196
217 1 0.426713 0.299139 0.933997
266 1 0.487242 0.372083 0.932558
375 2 0.257362 0.48214 0.787168
433 1 0.28335 0.366365 0.929053
441 2 0.307864 0.397624 0.965851
442 1 0.308704 0.454092 0.952546
493 1 0.307132 0.393938 0.76882
500 2 0.475418 0.318814 0.957768
41 1 0.547463 0.457769 0.861003
194 1 0.749478 0.377682 0.951982
214 1 0.509268 0.295461 0.768934
315 2 0.632096 0.281147 0.780174
317 1 0.683246 0.254568 0.786681
318 2 0.501069 0.465302 0.893336
320 1 0.517513 0.487977 0.941606
478 1 0.630492 0.332502 0.806374
479 2 0.633214 0.456707 0.810813
480 1 0.64831 0.499203 0.773374
481 1 0.669782 0.462099 0.852066
86 1 0.754442 0.294654 0.916729
144 2 0.996712 0.432747 0.990367
185 1 0.885827 0.304503 0.793942
192 2 0.765168 0.347931 0.904822
227 1 0.842672 0.362868 0.848117
264 2 0.874395 0.356869 0.798974
334 1 0.972486 0.385885 0.807611
102 2 0.13373 0.717551 0.760695
104 1 0.154297 0.722593 0.813133
203 1 0.178783 0.67189 0.976396
284 1 0.0340597 0.679579 0.772686
340 1 0.242113 0.744524 0.916208
352 1 0.164252 0.521397 0.946486
61 1 0.351889 0.740425 0.999114
198 2 0.420223 0.685351 0.766447
199 1 0.40477 0.653115 0.810148
200 1 0.400665 0.737494 0.781686
273 2 0.384995 0.571518 0.878546
275 1 0.4277 0.534941 0.879763
376 1 0.292607 0.514762 0.818372
449 2 0.345942 0.735267 0.94198
459 1 0.380583 0.60342 0.926376
168 2 0.7157 0.696822 0.860535
170 1 0.67366 0.693728 0.821936
173 1 0.535116 0.616269 0.989604
223 1 0.539805 0.699708 0.768156
323 1 0.700546 0.694439 0.971804
27 2 0.790948 0.555049 0.824573
28 1 0.758222 0.594897 0.843061
29 1 0.835439 0.547092 0.859733
37 1 0.959884 0.586453 0.875597
169 1 0.754905 0.727694 0.834046
282 2 0.981211 0.659605 0.784582
283 1 0.946403 0.702511 0.776452
295 1 0.961839 0.514496 0.936206
417 2 0.92781 0.546734 0.903386
460 1 0.908125 0.74597 0.90325
78 2 0.221726 0.928054 0.911963
79 1 0.181466 0.964303 0.925618
150 2 0.188287 0.757133 0.91389
248 1 0.191941 0.810008 0.892017
385 1 0.00949238 0.876494 0.756202
75 2 0.291441 0.952315 0.776432
76 1 0.254652 0.955629 0.818803
80 1 0.25196 0.924585 0.957619
90 2 0.45305 0.874431 0.919534
92 1 0.445343 0.90695 0.967625
426 2 0.383171 0.827784 0.788604
427 1 0.417066 0.85159 0.752922
428 1 0.408617 0.844716 0.835904
440 1 0.31911 0.902886 0.788743
450 1 0.379542 0.775056 0.923257
34 1 0.541681 0.870208 0.778091
62 1 0.730702 0.853669 0.89696
91 1 0.507531 0.874534 0.898649
132 2 0.704988 0.897323 0.757089
367 1 0.608954 0.812559 0.860213
429 2 0.592594 0.867112 0.863086
472 1 0.611382 0.898812 0.963384
495 1 0.664244 0.889725 0.795316
105 2 0.768184 0.869119 0.936339
117 2 0.942708 0.918687 0.845182
118 1 0.896969 0.946877 0.857906
245 1 0.863251 0.806502 0.954397
337 1 0.93739 0.871572 0.877949
387 2 0.848154 0.765701 0.772334
389 1 0.82932 0.81689 0.770528
430 1 0.782866 0.924502 0.921491
458 2 0.918484 0.786207 0.943437
ITEM: TIMESTEP
10000
ITEM: NUMBER OF ATOMS
518
ITEM: BOX BOUNDS pp pp pp
0.0000000000000000e+00 1.7199999999999999e+01
0.0000000000000000e+00 1.7199999999999999e+01
0.0000000000000000e+00 1.7199999999999999e+01
ITEM: ATOMS id type xs ys zs
21 2 0.0930994 0.156463 0.0713397
23 1 0.126529 0.158754 0.116807
356 1 0.191651 0.1499 0.24951
355 1 0.203776 0.107039 0.168928
354 2 0.164362 0.125435 0.20481
22 1 0.094101 0.104223 0.0522629
489 1 0.224195 0.075897 0.0287139
370 1 0.00392234 0.142251 0.102432
59 1 0.241893 0.247326 0.0424636
473 2 0.116207 0.0130612 0.0127787
488 2 0.258311 0.0990532 0.0640198
244 1 0.395993 0.157016 0.166802
142 1 0.455573 0.217316 0.148436
327 2 0.408718 0.0166599 0.0845116
328 1 0.435376 0.0108268 0.135521
243 2 0.401964 0.204333 0.138932
358 1 0.443569 0.0486185 0.0496447
442 1 0.40261 0.171728 0.0170901
490 1 0.310279 0.0778503 0.0681123
163 1 0.299571 0.00391011 0.234652
205 1 0.58305 0.119558 0.0404621
394 1 0.636033 0.176184 0.229519
149 1 0.542226 0.0689483 0.238452
147 2 0.507218 0.0216865 0.235705
204 2 0.537534 0.0978238 0.0115015
197 1 0.712189 0.232466 0.0562708
99 2 0.699362 0.129447 0.0316939
393 2 0.587543 0.155349 0.243576
154 1 0.711312 0.102135 0.0794042
438 2 0.699265 0.0163114 0.192354
397 1 0.707963 0.0403027 0.242236
12 2 0.950849 0.146885 0.129287
14 1 0.918506 0.112643 0.096459
209 1 0.978066 0.108811 0.236091
119 1 0.910138 0.24 0.104606
420 2 0.891747 0.0270861 0.024386
87 2 0.0531253 0.3397 0.0608775
88 1 0.0255932 0.358537 0.107652
89 1 0.021217 0.294968 0.0494443
352 1 0.170038 0.283814 0.0679014
444 2 0.217657 0.296106 0.0445145
100 1 0.249537 0.415874 0.219525
146 1 0.0502604 0.439714 0.00598429
446 1 0.294324 0.366154 0.0868622
476 2 0.332843 0.410766 0.0870496
193 1 0.355266 0.408797 0.134635
326 1 0.345007 0.25828 0.186665
177 2 0.322933 0.297833 0.223119
463 1 0.365416 0.332527 0.222731
439 1 0.298255 0.496966 0.0394967
10 2 0.440674 0.405217 0.234626
57 2 0.543774 0.28756 0.144209
58 1 0.588295 0.256678 0.1242
195 2 0.71366 0.279968 0.0860422
55 1 0.504367 0.336659 0.0564224
253 1 0.573793 0.302408 0.192981
196 1 0.71242 0.322542 0.0469762
5 2 0.667519 0.4502 0.213635
54 2 0.516192 0.372635 0.0168587
107 1 0.50733 0.451406 0.176997
517 1 0.60105 0.455568 0.183453
56 1 0.537007 0.416384 0.044581
294 2 0.547621 0.470275 0.143915
258 2 0.895988 0.293522 0.0903573
260 1 0.840729 0.289372 0.0854141
86 1 0.934226 0.383886 0.181986
106 1 0.76322 0.315691 0.210751
192 2 0.985765 0.398003 0.204317
15 2 0.822291 0.493027 0.193051
226 1 0.80121 0.443443 0.20726
194 1 0.985851 0.455889 0.202449
139 1 0.858986 0.485009 0.0905662
140 1 0.927125 0.493794 0.033893
11 3 0.137934 0.729422 0.245759
16 1 0.147051 0.607101 0.146238
261 2 0.140723 0.605566 0.202838
263 1 0.167628 0.560103 0.224682
310 1 0.206341 0.584277 0.0406595
287 1 0.191754 0.738381 0.114613
309 2 0.151498 0.60492 0.045053
465 1 0.0240436 0.581597 0.249093
410 1 0.0750274 0.52624 0.0123426
203 1 0.149157 0.644066 0.00110588
391 1 0.366168 0.613173 0.20097
216 2 0.30575 0.551121 0.0276737
210 2 0.429288 0.627812 0.109197
211 1 0.386797 0.594256 0.0910305
445 1 0.478208 0.655757 0.022332
212 1 0.401695 0.675114 0.125391
390 2 0.343125 0.585345 0.244642
173 1 0.731715 0.552848 0.114946
518 1 0.534851 0.525516 0.13828
171 2 0.726187 0.60829 0.104716
233 1 0.666993 0.66503 0.0445136
346 1 0.659759 0.656319 0.208578
123 2 0.633824 0.70194 0.0168999
272 1 0.835428 0.507276 0.244848
172 1 0.765628 0.636288 0.127049
138 2 0.872306 0.500756 0.0353784
381 2 0.861519 0.683432 0.175068
382 1 0.880203 0.721869 0.137619
383 1 0.897322 0.639259 0.17257
45 2 0.0254456 0.753368 0.213539
46 1 0.0228348 0.797692 0.180389
285 2 0.190165 0.7743 0.157586
475 1 0.11021 0.960111 0.0353071
292 1 0.132139 0.844287 0.131674
208 1 0.152166 0.971758 0.242932
291 2 0.0861187 0.883978 0.117929
293 1 0.0835966 0.91278 0.166696
118 1 0.00481282 0.809779 0.0110117
314 1 0.284575 0.754119 0.179585
312 2 0.341802 0.752829 0.169707
313 1 0.360811 0.773973 0.219065
67 1 0.350018 0.838131 0.0788861
95 1 0.390217 0.903664 0.0416845
270 2 0.348156 0.869903 0.031777
94 1 0.28358 0.96835 0.156413
93 2 0.26673 0.965422 0.210285
471 1 0.595066 0.98903 0.0143232
501 1 0.648703 0.996911 0.195177
374 1 0.528498 0.791957 0.0392946
254 1 0.603151 0.794139 0.146449
237 2 0.510573 0.835423 0.0714192
191 1 0.547043 0.874414 0.0565026
470 2 0.618791 0.937906 0.00594
252 2 0.623766 0.803965 0.199142
259 1 0.729166 0.920822 0.0416113
268 1 0.748095 0.952761 0.12287
443 1 0.679339 0.804455 0.189851
47 1 0.974205 0.753812 0.241986
372 2 0.770478 0.92643 0.0786854
458 2 0.886374 0.804855 0.0731693
245 1 0.85082 0.847145 0.0888427
422 1 0.859123 0.987462 0.047186
460 1 0.869183 0.793133 0.0219053
130 1 0.0645483 0.120077 0.26056
129 2 0.0165466 0.0942286 0.27517
236 1 0.0648528 0.00412373 0.261939
316 1 0.215546 0.115169 0.480329
112 1 0.227131 0.21701 0.370438
111 2 0.207099 0.234083 0.321436
455 2 0.239219 0.162943 0.464592
504 1 0.213744 0.0023392 0.360116
274 1 0.422355 0.0685028 0.251734
155 1 0.371591 0.107533 0.309404
384 2 0.37103 0.0922747 0.25498
380 1 0.417863 0.0583023 0.46039
379 1 0.358995 0.128 0.47818
378 2 0.410921 0.115288 0.463603
412 1 0.456832 0.196424 0.388498
411 2 0.492415 0.227997 0.358229
301 1 0.562865 0.191104 0.280265
241 1 0.603698 0.19858 0.445118
175 1 0.734921 0.217602 0.48585
400 1 0.745932 0.140189 0.330716
399 2 0.731365 0.0841633 0.330371
311 1 0.724125 0.0700594 0.387122
250 1 0.976448 0.0812872 0.372856
249 2 0.958515 0.0754799 0.427033
469 1 0.941502 0.158388 0.498251
486 1 0.849468 0.233094 0.385937
485 2 0.796619 0.23926 0.375097
251 1 0.998615 0.0446298 0.449747
398 1 0.866569 0.0111385 0.461035
36 2 0.222782 0.443464 0.258918
307 1 0.122761 0.308444 0.33192
306 2 0.0878725 0.351718 0.3408
164 1 0.195876 0.437853 0.486931
386 1 0.0713457 0.36946 0.290011
406 1 0.063358 0.493041 0.427243
359 1 0.237106 0.374603 0.383929
40 1 0.0232612 0.339905 0.414516
333 2 0.00294487 0.326935 0.466838
113 1 0.251796 0.254379 0.290955
43 1 0.45962 0.275196 0.348524
265 1 0.26812 0.464816 0.288574
65 1 0.261454 0.336827 0.464709
7 4 0.447908 0.436826 0.313497
8 2 0.423957 0.375275 0.377227
436 1 0.373084 0.38064 0.399759
357 2 0.269557 0.381577 0.42836
2 2 0.627171 0.314946 0.273036
3 4 0.663591 0.392419 0.284835
4 2 0.687849 0.414507 0.363728
6 2 0.544258 0.429569 0.327755
286 1 0.624422 0.275501 0.394145
324 2 0.629647 0.250996 0.446535
281 1 0.558764 0.478702 0.348319
228 2 0.781377 0.346352 0.254338
505 1 0.750072 0.446461 0.366061
468 1 0.951979 0.250687 0.494811
487 1 0.788394 0.278765 0.33478
321 2 0.896745 0.407232 0.364985
38 1 0.864945 0.392584 0.319834
322 1 0.944966 0.426011 0.33981
492 1 0.841346 0.463528 0.41089
137 1 0.787736 0.330802 0.465448
109 1 0.958154 0.359352 0.467747
405 2 0.0183956 0.525941 0.413274
234 2 0.246054 0.698285 0.294898
114 2 0.073916 0.664995 0.349722
115 1 0.0923682 0.700685 0.388776
116 1 0.0665103 0.611626 0.371327
9 2 0.411497 0.518027 0.338606
269 1 0.289129 0.50587 0.493194
239 1 0.280814 0.654608 0.27659
347 1 0.255687 0.697642 0.348746
319 1 0.430837 0.73648 0.351859
392 1 0.381918 0.550546 0.284944
396 2 0.266966 0.691406 0.466164
502 1 0.317589 0.670959 0.462077
373 1 0.483162 0.628235 0.43339
279 2 0.438962 0.651311 0.456856
280 1 0.404353 0.606073 0.46292
335 1 0.650964 0.710894 0.280332
515 2 0.66647 0.656764 0.263342
343 1 0.596989 0.609553 0.334078
336 2 0.712259 0.641121 0.451712
342 2 0.578633 0.579416 0.378221
404 1 0.680165 0.690506 0.460676
344 1 0.623464 0.586868 0.421426
299 1 0.734937 0.644777 0.39981
368 1 0.840779 0.678585 0.326621
464 2 0.974618 0.555309 0.253514
466 1 0.960777 0.551853 0.306291
491 2 0.797926 0.503213 0.415616
418 1 0.776918 0.645148 0.282752
49 1 0.806094 0.541326 0.376056
366 2 0.803794 0.634688 0.330407
407 1 0.994248 0.543111 0.461358
153 2 0.100312 0.960092 0.260955
419 1 0.120246 0.866265 0.313356
159 2 0.12875 0.818024 0.336006
48 2 0.230474 0.999516 0.415445
161 1 0.104381 0.825161 0.386635
497 2 0.0645379 0.823075 0.47713
187 1 0.146233 0.991025 0.49563
50 1 0.263626 0.955504 0.421719
126 2 0.424367 0.781907 0.321607
127 1 0.472354 0.81613 0.323608
290 1 0.355801 0.842505 0.391158
66 2 0.314571 0.857827 0.425433
71 1 0.398294 0.932781 0.486578
451 1 0.270364 0.824049 0.416361
69 2 0.442695 0.956702 0.465077
148 1 0.526568 0.982777 0.275864
60 2 0.691499 0.788361 0.365561
145 1 0.546174 0.867989 0.369539
151 1 0.570829 0.851181 0.280289
68 1 0.665137 0.817786 0.406351
408 2 0.541794 0.885922 0.316195
176 1 0.715488 0.830859 0.336682
425 1 0.566328 0.788387 0.492342
423 2 0.574834 0.838012 0.46495
219 2 0.906837 0.775328 0.316468
484 1 0.787479 0.945258 0.297405
221 1 0.934991 0.78598 0.36326
215 1 0.866829 0.816637 0.31259
482 2 0.803576 0.899006 0.322811
483 1 0.817488 0.919645 0.376056
369 2 0.836019 0.962206 0.464584
457 1 0.225976 0.202819 0.500207
182 1 0.0260366 0.0146434 0.605272
181 1 0.0269528 0.0538768 0.682612
509 2 0.110132 0.106992 0.730535
511 1 0.164253 0.106457 0.708269
72 2 0.396437 0.164103 0.715153
74 1 0.436818 0.179525 0.676459
514 1 0.474642 0.149609 0.567551
222 2 0.257004 0.0857895 0.675571
224 1 0.270786 0.0328187 0.665234
298 1 0.300073 0.113417 0.697936
345 2 0.499395 0.191975 0.596386
33 2 0.464597 0.0155268 0.681736
34 1 0.45113 0.0637055 0.706116
240 2 0.699621 0.0465064 0.522844
242 1 0.747759 0.0189817 0.514933
85 1 0.718612 0.100172 0.524435
235 1 0.53627 0.168194 0.63204
247 1 0.659858 0.130493 0.679127
246 2 0.608985 0.143182 0.698862
332 1 0.60837 0.00873704 0.553004
329 1 0.601912 0.108288 0.743396
467 2 0.921617 0.20973 0.519717
167 1 0.820137 0.195272 0.526081
231 2 0.783078 0.148092 0.685316
124 1 0.809091 0.0969177 0.683044
431 1 0.783893 0.168729 0.632583
180 2 0.989385 0.0335807 0.644986
496 1 0.916806 0.241747 0.662556
84 2 0.762398 0.19272 0.528264
98 1 0.977985 0.177104 0.652685
494 2 0.9555 0.214005 0.687094
162 2 0.146898 0.467495 0.501649
303 2 0.215468 0.28636 0.556192
403 1 0.120587 0.434769 0.540884
305 1 0.17245 0.313369 0.582084
432 2 0.0233583 0.438033 0.723456
512 2 0.0833776 0.350701 0.616712
513 1 0.0476424 0.380398 0.651518
409 1 0.0544862 0.335521 0.571559
13 1 0.0788368 0.269895 0.714966
304 1 0.253828 0.302445 0.593166
214 1 0.407287 0.363125 0.591942
213 2 0.437617 0.378614 0.546172
257 1 0.305377 0.322681 0.712312
255 2 0.327003 0.314572 0.65963
256 1 0.355032 0.269563 0.671047
364 1 0.406727 0.423437 0.522143
277 1 0.517264 0.357419 0.548724
317 1 0.6225 0.25083 0.695648
325 1 0.592438 0.309359 0.50388
42 2 0.579277 0.349561 0.542312
44 1 0.599189 0.327837 0.592157
315 2 0.624653 0.30491 0.677105
462 1 0.72211 0.368659 0.668888
478 1 0.600527 0.337486 0.71701
461 2 0.771215 0.395171 0.679701
17 1 0.791093 0.322203 0.548766
135 2 0.796122 0.362645 0.510679
362 1 0.765494 0.452544 0.54935
296 1 0.975675 0.463229 0.705583
152 1 0.792588 0.364728 0.7222
271 1 0.245842 0.667641 0.51177
229 1 0.163474 0.556516 0.559689
39 2 0.186374 0.606426 0.569293
64 1 0.103248 0.676893 0.600413
300 2 0.0487119 0.696613 0.600386
507 1 0.243451 0.522559 0.723472
32 1 0.173631 0.71968 0.728777
220 1 0.0461766 0.730303 0.64725
131 1 0.205796 0.602032 0.623
267 2 0.340714 0.514004 0.519822
63 2 0.426367 0.718221 0.628155
395 1 0.468714 0.741611 0.655769
128 1 0.327632 0.536676 0.570318
308 1 0.463812 0.529666 0.69757
402 2 0.433354 0.563743 0.728179
413 1 0.45666 0.614196 0.728789
506 2 0.272824 0.560478 0.69259
508 1 0.323742 0.568632 0.716533
232 1 0.445785 0.698117 0.577585
353 1 0.572588 0.51604 0.562277
351 2 0.559956 0.552077 0.605658
350 1 0.599584 0.538002 0.646848
331 1 0.707574 0.64816 0.646775
447 2 0.658254 0.510837 0.729174
141 2 0.585915 0.720183 0.563605
223 1 0.570974 0.667632 0.57744
143 1 0.593074 0.741982 0.61716
360 2 0.743806 0.502395 0.565466
361 1 0.758671 0.531683 0.519432
1 3 0.767912 0.519139 0.69067
330 2 0.755412 0.635512 0.676813
122 1 0.789754 0.676979 0.515413
18 2 0.948442 0.585363 0.547625
19 1 0.986823 0.625468 0.566254
20 1 0.902904 0.617804 0.54145
51 2 0.895055 0.520046 0.670447
53 1 0.914829 0.539961 0.619571
97 1 0.909143 0.55684 0.710257
121 1 0.810983 0.656701 0.598943
120 2 0.833239 0.68164 0.550122
283 1 0.931356 0.682963 0.748319
498 1 0.0763188 0.867098 0.508621
30 2 0.179405 0.754934 0.685131
401 1 0.235408 0.750157 0.676633
499 1 0.05666 0.782748 0.513942
186 2 0.107418 0.975638 0.533537
188 1 0.135795 0.957399 0.578209
435 2 0.143572 0.904135 0.676715
477 1 0.0436956 0.86482 0.677169
338 1 0.154644 0.849068 0.675816
437 1 0.163584 0.925946 0.726622
503 2 0.00330672 0.825538 0.69231
70 1 0.482762 0.960323 0.502626
134 1 0.41312 0.992448 0.677198
75 2 0.321431 0.931149 0.686346
184 1 0.304535 0.820613 0.532877
183 2 0.305073 0.809328 0.592683