# File generated with Atomsk by lv87908 on 2026-04-11 01:44:24

518  atoms
4  atom types

0.000000000000      17.200000000000  xlo xhi
0.000000000000      17.200000000000  ylo yhi
0.000000000000      17.200000000000  zlo zhi

Masses

1   1.00800000              # H
2   15.99900000             # O
3   24.30500000             # Mg
4   30.97376200             # P

Atoms # atomic

1    3       13.630968000000       9.737860000000      14.797894000000
2    2        8.467229000000       9.179156000000       4.373736000000
3    4        9.537059000000       9.826549000000       3.547041000000
4    2       10.405530000000      11.145922000000       3.942871000000
5    2        9.786741000000       9.345355000000       2.132510000000
6    2        8.108743000000      11.145632000000       2.912425000000
7    4        6.659678000000      11.149940000000       2.575576000000
8    2        6.355061000000      12.358912000000       1.586490000000
9    2        6.193561000000       9.904468000000       1.909567000000
10    2        5.736485000000      11.391227000000       3.806090000000
11    3        4.043051000000       2.465379000000      12.681885000000
12    2       16.504570000000       3.170158000000       9.573775000000
13    1       11.080473000000       3.802579000000      15.636664000000
14    1       10.251754000000       2.608470000000       7.545405000000
15    2        5.490055000000      16.926636000000      15.061692000000
16    1        4.078313000000       0.534497000000      14.352774000000
17    1       12.388182000000       7.039850000000       7.713393000000
18    2       14.930252000000       3.107015000000      11.647347000000
19    1       14.439519000000       3.856629000000      11.226793000000
20    1       14.293361000000       2.606464000000      12.120614000000
21    2        7.171086000000       7.496284000000       7.440617000000
22    1        7.452630000000       6.923304000000       8.189396000000
23    1        7.249382000000       6.906542000000       6.566466000000
24    2        4.389325000000       9.090615000000       8.137669000000
25    1        4.005756000000      13.768505000000       9.547298000000
26    1        4.168053000000       9.536685000000       7.273493000000
27    2        3.944510000000       1.521336000000       7.745779000000
28    1        3.230466000000       2.063245000000       7.436979000000
29    1        4.044369000000       1.460108000000       3.056906000000
30    2        9.209575000000       7.176189000000       9.988194000000
31    1        0.318469000000      16.727728000000       2.887914000000
32    1        8.965297000000       8.092451000000      10.210763000000
33    2        5.840851000000       7.476194000000       3.318603000000
34    1        6.401954000000       7.785645000000       2.582331000000
35    1       13.072716000000       1.492391000000       8.683970000000
36    2        7.951775000000      12.894586000000       6.975880000000
37    1        4.727858000000       0.239310000000       2.505270000000
38    1        8.258170000000       9.377233000000       5.724233000000
39    2       15.995824000000      13.699217000000      12.502558000000
40    1        2.080471000000      16.147697000000      11.704866000000
41    1        7.774858000000       1.450170000000       7.747857000000
42    2       13.387655000000      12.974927000000       5.716640000000
43    1       16.877832000000       3.558753000000       1.700793000000
44    1       12.603662000000      13.149068000000       6.276660000000
45    2        2.471559000000       3.777386000000      13.075632000000
46    1        1.536077000000       3.740541000000      13.027632000000
47    1        2.742921000000       4.719688000000      12.883348000000
48    2        3.749696000000      15.150619000000       6.401401000000
49    1       15.140850000000      10.456291000000      12.415176000000
50    1        2.931082000000      14.823853000000       6.004079000000
51    2       12.090185000000      10.416289000000      16.123335000000
52    1       15.195600000000       8.595945000000       0.889617000000
53    1       12.292186000000      10.440764000000      17.101402000000
54    2       14.237961000000       0.336802000000      13.175064000000
55    1       14.294418000000      16.682177000000      13.650530000000
56    1       13.459747000000       0.571465000000      12.661077000000
57    2       13.132053000000       4.629647000000       9.936540000000
58    1       13.617660000000       4.287159000000       9.169611000000
59    1       13.001370000000       5.521877000000       9.684920000000
60    2       13.149956000000       0.214353000000       2.228489000000
61    1        7.330844000000       5.715280000000      12.304152000000
62    1       13.322307000000       0.447190000000       3.150670000000
63    2       13.289392000000       0.206007000000       5.318371000000
64    1        1.264360000000      12.331910000000      10.435972000000
65    1       11.080210000000      10.349126000000       8.402680000000
66    2        3.289166000000       5.195017000000       4.027692000000
67    1       15.657654000000      14.731687000000      13.886480000000
68    1       13.594283000000       0.845041000000       1.649312000000
69    2        3.119311000000       6.754341000000       1.434700000000
70    1        2.234486000000       6.654851000000       1.048655000000
71    1        3.355187000000       6.066491000000       2.076078000000
72    2        5.458214000000       0.196826000000       5.795134000000
73    1        4.809124000000      14.314217000000       4.984355000000
74    1        5.320769000000       0.153860000000       4.851520000000
75    2       10.845681000000      12.836053000000      10.526984000000
76    1        9.951077000000      12.700028000000      10.244712000000
77    1        9.655273000000      13.081145000000       4.708261000000
78    2       16.797459000000      13.913456000000       8.349775000000
79    1       16.050539000000      14.188389000000       8.945813000000
80    1       16.470530000000      13.796870000000       7.491755000000
81    2       14.387644000000       2.951578000000       7.901592000000
82    1       14.535478000000       3.323139000000       7.038978000000
83    1       15.233624000000       3.017376000000       8.348124000000
84    2        3.807311000000       6.177248000000      14.515198000000
85    1        6.944699000000      13.107814000000       1.471916000000
86    1       13.153784000000       1.068719000000       5.675369000000
87    2       12.999637000000      14.850554000000       1.161557000000
88    1       13.958640000000      14.733448000000       0.897623000000
89    1       13.033544000000      15.612199000000       1.768924000000
90    2       14.847461000000       3.918708000000       4.787969000000
91    1       14.120532000000       4.577710000000       4.592472000000
92    1       15.323933000000       4.003404000000       3.942715000000
93    2        5.619374000000       3.389154000000       8.804879000000
94    1        4.956028000000       2.825364000000       8.314026000000
95    1       15.032378000000      14.803151000000      15.344601000000
96    2       10.478880000000       3.062652000000       8.351757000000
97    1       11.951992000000      11.375526000000      16.046497000000
98    1       17.001102000000       6.982655000000       0.315360000000
99    2       16.986130000000       0.695883000000      17.171463000000
100    1        7.157061000000      13.380914000000       7.132990000000
101    1       11.779411000000       2.149565000000       9.000015000000
102    2        4.034716000000       5.903560000000       8.856816000000
103    1        4.777919000000       5.238523000000       8.761854000000
104    1        3.726207000000       6.162383000000       7.990108000000
105    2        1.089139000000       7.068630000000      14.502134000000
106    1        0.778784000000       6.289642000000      14.019165000000
107    1        5.368102000000      16.181387000000       9.980055000000
108    2        7.540373000000      11.870933000000      16.017962000000
109    1        2.288450000000      15.448133000000      10.299287000000
110    1        8.937080000000      10.030888000000       7.364198000000
111    2       14.469730000000       1.773187000000       0.351700000000
112    1        2.137422000000      13.779276000000      12.042974000000
113    1        9.479511000000       0.803806000000      11.765560000000
114    2        4.913821000000       3.406271000000      14.458776000000
115    1        5.843297000000       3.628302000000      14.609134000000
116    1        4.359528000000       4.249159000000      14.484093000000
117    2       10.014107000000       1.886317000000       5.748947000000
118    1       10.388572000000       0.961773000000       5.698498000000
119    1       10.560749000000       2.473969000000       5.131635000000
120    2        8.029902000000      12.675167000000       9.793010000000
121    1        8.043722000000      12.519390000000       8.786789000000
122    1        7.259593000000      12.208992000000      10.089933000000
123    2       16.292171000000       6.448539000000       2.971167000000
124    1        2.055151000000      12.524489000000      15.344681000000
125    1        0.891774000000       0.286344000000       8.406662000000
126    2        9.979815000000      17.180607000000      12.124809000000
127    1       10.104499000000       0.048470000000      13.110038000000
128    1       16.272295000000       3.545914000000      12.697517000000
129    2       11.815570000000       2.235027000000      16.126354000000
130    1       11.681537000000       2.252212000000      17.067734000000
131    1        5.331360000000       7.523044000000      17.009460000000
132    2        0.840772000000       9.007767000000       8.112706000000
133    1        0.531321000000       9.371284000000       7.272908000000
134    1        4.973032000000       8.366696000000       7.793367000000
135    2       13.149631000000       7.657084000000       7.642474000000
136    1       10.260380000000       7.180954000000      14.960295000000
137    1       13.957066000000       7.278313000000       7.381410000000
138    2        1.830626000000       4.241612000000      16.000919000000
139    1        2.021523000000       5.190636000000      15.824855000000
140    1        2.375249000000       3.808877000000      15.345941000000
141    2       16.142803000000      16.723274000000       5.764252000000
142    1        8.604329000000       4.058357000000      14.824872000000
143    1       16.630825000000      17.171370000000       6.517725000000
144    2       12.798955000000       5.886276000000       1.681146000000
145    1        2.305442000000       8.407012000000       3.034425000000
146    1       13.466799000000       6.551828000000       1.852759000000
147    2        4.052327000000       8.437427000000      12.885282000000
148    1        4.527706000000       8.256581000000      12.029263000000
149    1        3.119038000000       8.595784000000      12.655897000000
150    2        8.879486000000       9.828437000000      10.357362000000
151    1        1.929155000000       7.114716000000       5.778977000000
152    1        2.953817000000      12.575631000000       9.484390000000
153    2        2.336806000000      14.846043000000      15.117631000000
154    1        3.083747000000      14.932833000000      14.448405000000
155    1        4.302981000000       6.144214000000      15.318925000000
156    2        5.038860000000       6.594792000000      16.916498000000
157    1       16.845301000000       0.832688000000       4.552162000000
158    1        4.377741000000       6.659151000000       0.441644000000
159    2        5.197190000000       3.715751000000      11.491694000000
160    1       14.626448000000       8.086590000000       3.671690000000
161    1        5.486451000000       3.594513000000      10.550110000000
162    2       10.149903000000      11.008839000000      12.815954000000
163    1        6.430120000000       3.215051000000       8.294410000000
164    1       10.380124000000      11.945545000000      12.591232000000
165    2        9.657303000000      15.314939000000      16.427235000000
166    1        9.961246000000      15.713910000000       0.044564000000
167    1        8.785618000000      15.061024000000      16.466930000000
168    2       10.900236000000       6.071407000000       7.915344000000
169    1        5.896368000000       3.951778000000       2.695446000000
170    1       15.971913000000       5.827033000000       7.833442000000
171    2        6.302395000000      10.520131000000      10.110772000000
172    1        5.888083000000       9.823898000000      10.618343000000
173    1        5.926241000000      10.336877000000       9.248387000000
174    2       11.391753000000       6.914738000000      16.329357000000
175    1        4.027296000000       7.001025000000      14.072425000000
176    1       11.584929000000       6.020769000000      16.030470000000
177    2        6.052681000000       9.134220000000      16.791281000000
178    1        9.276028000000       0.596119000000      15.187686000000
179    1        7.941411000000      11.024976000000      16.221281000000
180    2       11.971686000000       9.134620000000      13.416199000000
181    1       11.361647000000       9.849975000000      13.404337000000
182    1       12.237268000000       8.921381000000      12.533948000000
183    2        4.877753000000       0.959654000000       3.134751000000
184    1        0.019754000000       0.543575000000      16.252314000000
185    1        8.858337000000      15.345388000000      11.673993000000
186    2        5.984590000000       3.620749000000       3.610672000000
187    1       12.586871000000       6.676257000000       4.881681000000
188    1        5.830477000000       2.672115000000       3.513374000000
189    2       15.344751000000       7.621878000000       0.603052000000
190    1       14.821861000000       7.593869000000      16.964039000000
191    1        7.461939000000       3.272436000000       1.235193000000
192    2       15.493418000000       6.169524000000       8.606750000000
193    1        3.271534000000      11.136574000000      11.959015000000
194    1       15.520417000000       5.472729000000       9.273318000000
195    2        4.743004000000      10.282617000000      14.782133000000
196    1        4.659986000000       9.828057000000      13.856839000000
197    1        4.190999000000      11.106620000000      14.682134000000
198    2        0.323079000000      10.297609000000       5.405082000000
199    1        0.255450000000      10.443608000000       4.432695000000
200    1       16.612543000000      10.505452000000       5.771780000000
201    2       10.123823000000       0.223303000000      14.824081000000
202    1        7.936884000000      14.654897000000      13.846774000000
203    1       14.982081000000       4.584183000000      16.787886000000
204    2        8.880386000000       2.111287000000      10.807072000000
205    1        9.581378000000       2.706123000000      10.551113000000
206    1        8.587318000000       1.722286000000       9.950686000000
207    2       10.589203000000       4.524380000000      15.192390000000
208    1       10.985563000000       4.590368000000      14.261314000000
209    1       16.093107000000       2.850435000000      10.400860000000
210    2       12.465584000000      13.021816000000       3.060010000000
211    1       12.824728000000      13.665894000000       2.526966000000
212    1       11.537807000000      13.132515000000       2.958218000000
213    2        3.085222000000      14.054591000000       2.619855000000
214    1        2.913651000000      14.869241000000       2.097852000000
215    1        5.533624000000      13.519206000000      16.696354000000
216    2        0.126909000000      13.568283000000       1.301924000000
217    1       10.305492000000      17.063601000000       3.772608000000
218    1       14.697986000000      10.372497000000       0.174744000000
219    2        9.772340000000      13.029396000000       1.792141000000
220    1        9.318687000000      12.158792000000       1.835676000000
221    1        0.256029000000       3.209047000000       9.688362000000
222    2        2.527692000000       2.575424000000       3.418734000000
223    1       15.199213000000      17.091604000000       5.795641000000
224    1        1.860524000000       2.007733000000       3.847208000000
225    2       14.908029000000      10.059565000000       1.093583000000
226    1        6.092166000000       0.445850000000      15.259768000000
227    1        8.275129000000      14.123410000000      11.021087000000
228    2       11.202174000000       8.772079000000       4.273246000000
229    1       15.607030000000      12.825768000000      12.232621000000
230    1       15.413789000000       1.595582000000       0.067135000000
231    2        2.251776000000      11.758464000000      14.779366000000
232    1       12.423018000000      17.003067000000       5.376293000000
233    1       16.059242000000       6.897198000000       2.124646000000
234    2        6.011384000000       1.309968000000      12.593689000000
235    1        7.557696000000       2.203493000000      15.413459000000
236    1        1.669943000000      15.546410000000      15.095511000000
237    2       15.168585000000      13.584031000000      16.758095000000
238    1       14.891907000000      12.623038000000      16.509829000000
239    1        5.892476000000       0.325995000000      12.616966000000
240    2        1.830138000000       9.732440000000      12.032109000000
241    1       14.030350000000      10.044681000000       1.592419000000
242    1        1.247177000000       9.594513000000      11.285650000000
243    2        7.684171000000       3.991958000000      15.134692000000
244    1        1.831729000000      12.695877000000      13.000134000000
245    1        6.763659000000      14.644755000000       3.433078000000
246    2        8.059552000000       0.662855000000       3.211780000000
247    1        2.364178000000      15.456568000000       7.922924000000
248    1        9.433121000000      10.363786000000      10.943739000000
249    2        7.330017000000       2.591359000000       6.272447000000
250    1        6.791510000000       2.170824000000       5.612957000000
251    1        8.273615000000       2.558399000000       5.998589000000
252    2       10.443389000000      16.605387000000       7.700162000000
253    1        7.275486000000      11.402488000000      14.183870000000
254    1        9.573482000000      16.848751000000       8.061382000000
255    2       12.888482000000       5.822437000000       4.452950000000
256    1       12.721513000000       5.967181000000       3.530270000000
257    1       16.092352000000       4.710329000000       5.904283000000
258    2       12.126775000000       1.683424000000      11.866308000000
259    1       11.414836000000       1.021420000000      12.015008000000
260    1        3.480925000000       6.394730000000      11.158655000000
261    2        3.370401000000       1.148910000000      13.964454000000
262    1        7.809495000000       5.397686000000       0.810244000000
263    1        2.652797000000       0.562060000000      13.623955000000
264    2        8.100532000000      14.808313000000      11.689223000000
265    1       11.764499000000       4.571317000000      11.888425000000
266    1       10.504670000000      15.747562000000       4.570516000000
267    2       16.929098000000       3.929712000000      13.324938000000
268    1        4.508141000000      14.123857000000       3.532062000000
269    1       16.698822000000       3.603958000000      14.221144000000
270    2       15.260813000000      15.330004000000      14.548327000000
271    1        6.594580000000      11.707295000000      16.053886000000
272    1        5.970500000000      16.314028000000      14.479845000000
273    2        2.680063000000       5.914823000000      11.423994000000
274    1        6.455364000000      10.946979000000      13.053980000000
275    1        2.593577000000       5.082661000000      10.860416000000
276    2        0.549298000000       1.106741000000       8.068151000000
277    1       13.081855000000      12.987061000000       4.824216000000
278    1       17.198372000000       1.605251000000       8.738265000000
279    2        2.589524000000      11.833140000000       0.630121000000
280    1        1.660022000000      12.196517000000       0.645576000000
281    1        2.481548000000      11.048419000000       0.046936000000
282    2        9.014296000000       9.320745000000      16.707350000000
283    1        9.905589000000       9.221201000000      16.352449000000
284    1        9.250373000000       9.428159000000       0.506791000000
285    2        3.172173000000       1.721574000000      11.138654000000
286    1        4.469500000000      12.595375000000       7.840610000000
287    1        3.541073000000       1.178536000000      10.451352000000
288    2        9.820498000000       7.456608000000      14.136007000000
289    1       10.485298000000       8.035649000000      13.741204000000
290    1        4.241349000000       5.196859000000       3.993073000000
291    2       15.924595000000       0.362209000000      11.104403000000
292    1       15.313974000000       0.156428000000      11.882714000000
293    1       15.895535000000      16.714138000000      10.619046000000
294    2        5.266844000000      16.250109000000       9.010910000000
295    1        4.500522000000      16.776546000000       8.837720000000
296    1        9.562213000000       6.895824000000       0.402512000000
297    2        2.735832000000       6.996117000000       6.359056000000
298    1        2.710139000000       3.312464000000       3.925525000000
299    1        2.525992000000       7.668068000000       7.034711000000
300    2        1.400316000000      12.102178000000       9.447562000000
301    1        6.802372000000       5.105386000000       4.843166000000
302    1        0.727686000000      12.769177000000       9.152559000000
303    2       16.820257000000       4.988297000000       6.525175000000
304    1       11.109200000000      10.907749000000       4.578755000000
305    1        0.115138000000       5.725307000000       6.063295000000
306    2        6.945598000000       7.881935000000      14.380651000000
307    1        7.712644000000       7.374818000000      14.619401000000
308    1        2.317263000000       2.931490000000      10.441050000000
309    2       15.791518000000       4.443826000000      16.288437000000
310    1       16.532372000000       4.529271000000      16.885172000000
311    1       11.530120000000       0.228096000000       1.483136000000
312    2       12.518249000000      15.079230000000      10.925196000000
313    1       11.935367000000      15.800292000000      11.031590000000
314    1       10.498174000000       6.251156000000       7.046071000000
315    2        6.274800000000      15.130358000000       0.195156000000
316    1       12.142816000000      13.338218000000      14.100390000000
317    1        6.290277000000      15.659779000000      16.565187000000
318    2        8.011662000000       0.814069000000       8.467894000000
319    1        8.304032000000       0.732693000000       4.154949000000
320    1        7.212044000000       0.257944000000       8.590282000000
321    2        8.106317000000       9.730063000000       6.790654000000
322    1        7.703170000000       8.770464000000       7.098294000000
323    1       15.987454000000       5.542005000000       2.975675000000
324    2        4.709771000000      12.554528000000       6.890045000000
325    1        4.021326000000      11.996840000000       6.579890000000
326    1        6.697214000000       8.617729000000      16.367731000000
327    2        0.161623000000       9.718389000000      14.640270000000
328    1        0.474150000000       8.778214000000      14.675824000000
329    1        7.412420000000      17.147085000000       3.240667000000
330    2       14.827430000000      10.963266000000      15.877470000000
331    1       15.735964000000      10.625603000000      15.694330000000
332    1       16.567739000000       9.688274000000      14.059412000000
333    2        2.481546000000      15.365365000000      11.263103000000
334    1        7.704535000000      12.114835000000       6.419333000000
335    1        4.698935000000      15.834336000000       0.729707000000
336    2        3.237990000000      10.419490000000       5.723907000000
337    1        9.037072000000       6.562938000000      10.724696000000
338    1       10.026799000000       5.062969000000       1.183121000000
339    2        1.506478000000      13.006681000000      12.170494000000
340    1        7.961605000000      10.237203000000      10.276847000000
341    1       13.968675000000       2.053452000000      16.803038000000
342    2       12.835885000000      10.010803000000       8.778123000000
343    1       13.266012000000       9.305892000000       8.265393000000
344    1       13.336373000000      10.811679000000       8.588279000000
345    2       12.263424000000       1.338340000000       9.211773000000
346    1        2.259815000000      10.551934000000       5.721183000000
347    1        6.642236000000       1.532689000000      11.872580000000
348    2        7.041420000000       4.919752000000       0.422538000000
349    1        6.331560000000       5.591835000000       0.398193000000
350    1        0.459641000000       1.358276000000       0.183575000000
351    2        0.033455000000      11.029213000000       2.483559000000
352    1        0.753783000000      10.418211000000       2.303946000000
353    1       16.557495000000      10.674540000000       1.853642000000
354    2        0.504788000000       7.483274000000       5.004780000000
355    1       17.196245000000       7.080373000000       4.263247000000
356    1        0.309236000000       8.444676000000       5.023119000000
357    2       10.144938000000      10.520807000000       8.141266000000
358    1       12.137692000000       7.488530000000      16.071331000000
359    1        9.583467000000      10.327953000000       8.979718000000
360    2       13.758529000000       7.912879000000      15.649753000000
361    1       16.986870000000      13.645874000000      12.350168000000
362    1       14.229166000000       7.455461000000      14.914153000000
363    2        0.230800000000       1.067641000000       3.808609000000
364    1        2.843893000000      13.374766000000       2.039228000000
365    1        6.413410000000       9.599289000000       0.869660000000
366    2       11.186787000000       4.191996000000      12.570467000000
367    1        7.886264000000       1.974896000000       2.092637000000
368    1       11.441412000000       3.260122000000      12.478259000000
369    2        0.387913000000      16.123659000000       2.124162000000
370    1       16.383797000000      16.751074000000      14.703187000000
371    1       12.242995000000       1.630593000000      10.906731000000
372    2        5.183418000000      13.870760000000       4.186145000000
373    1        5.520709000000      12.343641000000       4.055981000000
374    1       15.975091000000      13.526313000000       0.127119000000
375    2       11.236886000000      13.504850000000       7.305905000000
376    1       10.501287000000      13.074969000000       7.769780000000
377    1       11.181468000000      14.438537000000       7.556921000000
378    2       12.354382000000      10.538042000000       1.451085000000
379    1       11.735796000000       9.966664000000       1.951554000000
380    1       12.222910000000      11.419845000000       1.833882000000
381    2       16.001554000000      13.941639000000       5.639546000000
382    1       15.997690000000      14.906169000000       5.658730000000
383    1       15.112043000000      13.514411000000       5.566267000000
384    2        7.341601000000      10.826275000000      13.412002000000
385    1        4.874297000000      16.671356000000       6.041112000000
386    1        7.262001000000       8.746999000000      14.029861000000
387    2        1.634662000000      15.696535000000       8.470592000000
388    1        3.249215000000       9.371313000000      15.833962000000
389    1        1.861635000000       2.915549000000       1.590686000000
390    2        2.764338000000       9.181208000000      16.698418000000
391    1        1.969654000000       8.684272000000      16.654554000000
392    1        3.110361000000       9.243853000000       2.029193000000
393    2        7.052723000000       6.000757000000       5.123576000000
394    1        6.815733000000       6.602371000000       4.386734000000
395    1       17.054989000000       1.794455000000       3.326813000000
396    2       14.128008000000       8.837518000000       3.979884000000
397    1       11.039709000000       3.569984000000       2.845711000000
398    1       17.015177000000      16.552271000000       1.469659000000
399    2       10.653589000000       0.199238000000       1.073618000000
400    1       10.224925000000       0.996403000000       1.365146000000
401    1        0.917345000000      15.030344000000       8.373009000000
402    2        1.965412000000       3.752280000000       9.971396000000
403    1        9.227122000000      10.998928000000      13.078045000000
404    1        3.496671000000      10.265075000000       4.809105000000
405    2        5.492959000000      15.726608000000      11.944965000000
406    1        4.948032000000      15.084643000000      12.432861000000
407    1        6.382170000000      15.294106000000      11.669697000000