ITEM: TIMESTEP
0
ITEM: NUMBER OF ATOMS
518
ITEM: BOX BOUNDS pp pp pp
0.0000000000000000e+00 1.7199999999999999e+01
0.0000000000000000e+00 1.7199999999999999e+01
0.0000000000000000e+00 1.7199999999999999e+01
ITEM: ATOMS id type xs ys zs
29 1 0.235138 0.08489 0.177727
222 2 0.146959 0.149734 0.198764
224 1 0.10817 0.116729 0.223675
298 1 0.157566 0.192585 0.228228
350 1 0.0267233 0.0789695 0.010673
363 2 0.0134186 0.0620722 0.221431
389 1 0.108235 0.169509 0.0924817
473 2 0.0683316 0.173684 0.0547864
475 1 0.087372 0.201615 0.00979041
37 1 0.274875 0.0139134 0.145655
169 1 0.342812 0.229755 0.156712
183 2 0.28359 0.0557938 0.182253
186 2 0.347941 0.210509 0.209923
188 1 0.338981 0.155356 0.204266
191 1 0.433834 0.190258 0.0718135
246 2 0.468579 0.0385381 0.186731
319 1 0.482793 0.0425984 0.241567
367 1 0.458504 0.11482 0.121665
429 2 0.460851 0.14391 0.0732026
311 1 0.670356 0.0132614 0.0862288
397 1 0.641844 0.207557 0.165448
399 2 0.619395 0.0115836 0.0624197
400 1 0.594472 0.0579304 0.079369
435 2 0.595067 0.236011 0.0785922
437 1 0.543883 0.215257 0.0782986
438 2 0.656852 0.195991 0.219296
501 1 0.696017 0.232067 0.237003
43 1 0.981269 0.206904 0.0988833
60 2 0.764532 0.0124624 0.129563
62 1 0.774553 0.0259994 0.183178
68 1 0.790365 0.0491303 0.0958902
92 1 0.890926 0.232756 0.229228
111 2 0.841263 0.103092 0.0204477
230 1 0.896151 0.0927664 0.0039032
395 1 0.991569 0.104329 0.193419
411 2 0.930361 0.215841 0.125566
412 1 0.889642 0.186501 0.0998254
66 2 0.191231 0.302036 0.234168
69 2 0.181355 0.392694 0.0834128
70 1 0.129912 0.38691 0.0609683
71 1 0.195069 0.352703 0.120702
145 1 0.134037 0.48878 0.17642
290 1 0.24659 0.302143 0.232155
494 2 0.040459 0.392594 0.0057343
33 2 0.339584 0.434662 0.192942
34 1 0.372207 0.452654 0.150136
158 1 0.25452 0.38716 0.025677
262 1 0.45404 0.313819 0.0471072
348 2 0.409385 0.286032 0.0245662
349 1 0.368114 0.325107 0.0231508
514 1 0.322949 0.489722 0.206222
144 2 0.744125 0.342225 0.097741
256 1 0.739623 0.346929 0.205248
296 1 0.555943 0.40092 0.0234019
338 1 0.582953 0.294359 0.0687861
410 1 0.706788 0.371577 0.0638045
432 2 0.533084 0.383534 0.0714848
434 1 0.553083 0.419948 0.111733
52 1 0.883465 0.499764 0.0517219
98 1 0.988436 0.405968 0.0183349
123 2 0.947219 0.374915 0.172742
146 1 0.782953 0.38092 0.107719
160 1 0.850375 0.470151 0.21347
189 2 0.892137 0.443132 0.0350612
233 1 0.933677 0.401 0.123526
323 1 0.929503 0.32221 0.173004
355 1 0.999782 0.41165 0.247863
279 2 0.150554 0.687973 0.0366349
280 1 0.0965129 0.7091 0.0375335
281 1 0.144276 0.64235 0.00272884
351 2 0.00194506 0.641233 0.144393
352 1 0.0438246 0.60571 0.13395
392 1 0.180835 0.537433 0.117976
408 2 0.147261 0.543273 0.16277
6 2 0.471439 0.648002 0.169327
7 4 0.387191 0.648252 0.149743
8 2 0.36948 0.718541 0.0922378
9 2 0.360091 0.575841 0.111021
10 2 0.333517 0.662281 0.221284
365 1 0.372873 0.558098 0.0505616
373 1 0.320971 0.717654 0.235813
3 4 0.55448 0.571311 0.206223
4 2 0.604973 0.648019 0.229237
5 2 0.568997 0.543335 0.123983
220 1 0.541784 0.706907 0.106725
228 2 0.651289 0.510005 0.248445
284 1 0.537812 0.548149 0.0294646
378 2 0.718278 0.612677 0.0843654
379 1 0.682314 0.579457 0.113462
380 1 0.710634 0.663944 0.106621
218 1 0.854534 0.603052 0.0101595
225 2 0.866746 0.584858 0.0635804
241 1 0.815718 0.583993 0.0925825
353 1 0.962645 0.620613 0.10777
396 2 0.821396 0.513809 0.231389
456 1 0.990125 0.745686 0.112545
502 1 0.767407 0.510426 0.215953
31 1 0.0185156 0.972542 0.167902
213 2 0.179373 0.817127 0.152317
214 1 0.169398 0.864491 0.121968
216 2 0.00737843 0.788854 0.0756933
364 1 0.165343 0.777603 0.11856
369 2 0.0225531 0.937422 0.123498
436 1 0.112042 0.801718 0.239094
439 1 0.0194246 0.839362 0.101596
515 2 0.226036 0.943077 0.0653036
517 1 0.201543 0.965334 0.0185959
85 1 0.403762 0.762082 0.0855765
245 1 0.393236 0.851439 0.199598
268 1 0.262101 0.821154 0.205352
315 2 0.364814 0.879672 0.0113463
329 1 0.430955 0.996924 0.188411
335 1 0.273194 0.920601 0.0424248
372 2 0.301362 0.80644 0.243381
458 2 0.43656 0.870457 0.166772
460 1 0.481972 0.833476 0.181994
478 1 0.408295 0.890516 0.0446904
166 1 0.579142 0.913599 0.00259093
210 2 0.724743 0.757082 0.177908
211 1 0.745624 0.794529 0.146917
212 1 0.670803 0.763518 0.171989
217 1 0.599157 0.99207 0.219338
219 2 0.568159 0.757523 0.104194
480 1 0.602513 0.751382 0.0599186
511 1 0.705672 0.801213 0.00276047
87 2 0.755793 0.863404 0.0675324
88 1 0.811549 0.856596 0.0521874
89 1 0.757764 0.907686 0.102844
374 1 0.928784 0.786414 0.00739064
398 1 0.989254 0.962341 0.0854453
27 2 0.229332 0.0884498 0.450336
28 1 0.187818 0.119956 0.432383
125 1 0.0518473 0.0166479 0.488759
276 2 0.0319359 0.0643454 0.469079
452 2 0.108811 0.178633 0.380992
453 1 0.0887781 0.2304 0.387836
454 1 0.0704672 0.149436 0.409702
41 1 0.452027 0.0843122 0.450457
72 2 0.317338 0.0114434 0.336926
74 1 0.309347 0.00894535 0.282065
94 1 0.288141 0.164265 0.483374
163 1 0.373844 0.186922 0.482233
249 2 0.426164 0.15066 0.364677
250 1 0.394855 0.126211 0.326335
251 1 0.481024 0.148744 0.348755
318 2 0.465794 0.0473296 0.492319
320 1 0.419305 0.0149967 0.499435
518 1 0.257937 0.0640231 0.408123
14 1 0.596032 0.151655 0.438686
96 2 0.609237 0.178061 0.485567
117 2 0.582216 0.10967 0.334241
118 1 0.603987 0.055917 0.331308
119 1 0.613997 0.143835 0.298351
443 1 0.642483 0.00168308 0.474928
493 1 0.621347 0.232142 0.476433
63 2 0.772639 0.0119772 0.309208
81 2 0.836491 0.171603 0.459395
82 1 0.845086 0.193206 0.409243
83 1 0.885676 0.175429 0.485356
86 1 0.764755 0.0621348 0.329963
90 2 0.863224 0.227832 0.27837
157 1 0.979378 0.0484121 0.264661
104 1 0.21664 0.358278 0.464541
151 1 0.11216 0.413646 0.335987
297 2 0.15906 0.406751 0.369713
299 1 0.14686 0.445818 0.408995
305 1 0.00669407 0.332867 0.352517
354 2 0.0293481 0.435074 0.290976
356 1 0.0179788 0.49097 0.292042
451 1 0.179796 0.352037 0.26169
21 2 0.416924 0.43583 0.432594
22 1 0.433292 0.402518 0.476128
23 1 0.421476 0.401543 0.381771
134 1 0.28913 0.486436 0.453103
301 1 0.395487 0.296825 0.281579
393 2 0.410042 0.348881 0.297882
394 1 0.396264 0.383859 0.255043
17 1 0.720243 0.409294 0.448453
168 2 0.633735 0.352989 0.460194
187 1 0.731795 0.388154 0.283819
255 2 0.74933 0.338514 0.258892
314 1 0.610359 0.363439 0.409655
442 1 0.640152 0.489931 0.302791
463 1 0.598295 0.37736 0.498088
470 2 0.593781 0.335534 0.299023
471 1 0.554045 0.36492 0.271597
472 1 0.604013 0.290036 0.27178
91 1 0.820961 0.266146 0.267004
135 2 0.764513 0.445179 0.44433
137 1 0.811457 0.423158 0.429152
170 1 0.9286 0.338781 0.455433
257 1 0.935602 0.273856 0.343272
303 2 0.977922 0.290017 0.379371
26 1 0.242329 0.554458 0.422878
132 2 0.0488821 0.523707 0.471669
133 1 0.0308908 0.544842 0.422843
198 2 0.0187837 0.598698 0.314249
199 1 0.0148517 0.607187 0.257715
325 1 0.233798 0.697491 0.382552
336 2 0.188255 0.605784 0.332785
346 1 0.131385 0.613485 0.332627
404 1 0.203295 0.596807 0.279599
495 1 0.0957958 0.552904 0.481389
2 2 0.492281 0.533672 0.254287
24 2 0.255193 0.528524 0.47312
36 2 0.462312 0.749685 0.405574
38 1 0.480126 0.545188 0.332804
286 1 0.259855 0.732289 0.455849
321 2 0.471298 0.565701 0.394805
322 1 0.447859 0.509911 0.412692
324 2 0.273824 0.729914 0.400584
334 1 0.447938 0.704351 0.373217
65 1 0.644198 0.601693 0.488528
110 1 0.519598 0.583191 0.428151
304 1 0.645884 0.634171 0.266207
357 2 0.589822 0.611675 0.473329
200 1 0.965846 0.610782 0.335569
343 1 0.77128 0.54104 0.480546
344 1 0.775371 0.628586 0.499319
497 2 0.865699 0.591554 0.358312
498 1 0.850209 0.564292 0.310707
499 1 0.851036 0.648917 0.357418
48 2 0.218006 0.88085 0.372174
50 1 0.170412 0.861852 0.349074
247 1 0.137452 0.898638 0.460635
387 2 0.0950385 0.912589 0.492476
401 1 0.053334 0.873857 0.486803
444 2 0.10083 0.792856 0.294979
445 1 0.0442982 0.790489 0.297238
504 1 0.244122 0.838114 0.401397
73 1 0.2796 0.832222 0.289788
100 1 0.416108 0.77796 0.414709
385 1 0.283389 0.969265 0.351227
44 1 0.732771 0.764481 0.364922
77 1 0.561353 0.760532 0.273736
232 1 0.722268 0.98855 0.312575
252 2 0.607174 0.965429 0.447684
254 1 0.556598 0.979579 0.468685
266 1 0.610737 0.915556 0.265728
375 2 0.653307 0.785166 0.424762
376 1 0.61054 0.760173 0.451731
377 1 0.650085 0.83945 0.439356
484 1 0.524296 0.819136 0.323215
500 2 0.628443 0.967313 0.259848
503 2 0.544669 0.814723 0.270465
42 2 0.778352 0.754356 0.332363
78 2 0.976596 0.808922 0.485452
80 1 0.957589 0.802144 0.435567
141 2 0.938535 0.972283 0.335131
143 1 0.966908 0.998335 0.378938
223 1 0.883675 0.993698 0.336956
277 1 0.760573 0.755062 0.280478
381 2 0.930323 0.81056 0.327881
382 1 0.930098 0.866638 0.328996
383 1 0.878607 0.785722 0.32362
11 3 0.235061 0.143336 0.737319
221 1 0.0148854 0.186573 0.563277
285 2 0.184429 0.100092 0.647596
287 1 0.205876 0.0685195 0.607637
308 1 0.134725 0.170435 0.607038
402 2 0.114268 0.218156 0.579732
413 1 0.139418 0.227893 0.529814
464 2 0.0650174 0.0230091 0.705592
465 1 0.102708 0.0573399 0.677386
466 1 0.0114232 0.0281051 0.681411
93 2 0.326708 0.197044 0.511912
159 2 0.302162 0.216032 0.668122
161 1 0.31898 0.208983 0.613378
206 1 0.499263 0.100133 0.578528
234 2 0.349499 0.0761609 0.732191
239 1 0.342586 0.0189532 0.733545
347 1 0.386177 0.0891098 0.690266
101 1 0.684849 0.124975 0.523257
113 1 0.551134 0.0467329 0.684044
204 2 0.516302 0.122749 0.628318
205 1 0.557057 0.157333 0.613437
258 2 0.705045 0.0978735 0.689902
259 1 0.663653 0.0593849 0.698547
345 2 0.71299 0.0778105 0.535568
366 2 0.650395 0.243721 0.730841
368 1 0.665198 0.189542 0.72548
371 1 0.711802 0.0948019 0.634112
12 2 0.959568 0.184312 0.556615
18 2 0.868038 0.18064 0.677171
19 1 0.839507 0.224223 0.652721
20 1 0.831009 0.151539 0.704687
35 1 0.760042 0.0867669 0.504882
56 1 0.782543 0.0332247 0.736109
58 1 0.791724 0.249253 0.533117
128 1 0.946064 0.206158 0.738228
209 1 0.935646 0.165723 0.604701
278 1 0.999905 0.0933285 0.508039
291 2 0.925849 0.0210587 0.645605
292 1 0.890347 0.00909465 0.690855
47 1 0.159472 0.2744 0.749032
102 2 0.234577 0.34323 0.514931
147 2 0.2356 0.490548 0.749144
149 1 0.181339 0.499755 0.735808
260 1 0.202379 0.371787 0.648759
273 2 0.155818 0.343885 0.664186
275 1 0.150789 0.295504 0.63142
420 2 0.0173955 0.407824 0.637657
421 1 0.0737215 0.390357 0.638576
61 1 0.426212 0.332284 0.715358
103 1 0.277786 0.304565 0.50941
148 1 0.263239 0.480034 0.699376
419 1 0.3167 0.265939 0.688944
449 2 0.367572 0.338648 0.713401
450 1 0.367788 0.38228 0.748124
506 2 0.307616 0.446806 0.618066
507 1 0.337492 0.400714 0.616392
508 1 0.279384 0.451981 0.569457
30 2 0.53544 0.41722 0.580709
32 1 0.521238 0.470491 0.593649
265 1 0.683983 0.265774 0.691187
337 1 0.525411 0.381566 0.623529
417 2 0.744737 0.443288 0.63209
467 2 0.527301 0.333632 0.710922
468 1 0.545254 0.373011 0.748876
469 1 0.563061 0.290053 0.711706
57 2 0.763491 0.269166 0.577706
59 1 0.755894 0.321039 0.563077
192 2 0.90078 0.358693 0.500392
194 1 0.90235 0.318182 0.539146
409 1 0.968935 0.499725 0.628462
414 2 0.873102 0.36 0.711132
415 1 0.901017 0.321387 0.740803
416 1 0.921236 0.393054 0.697054
418 1 0.755392 0.475512 0.588636
422 1 0.993343 0.39597 0.586463
516 1 0.793684 0.415966 0.643546
64 1 0.0735093 0.716972 0.606743
152 1 0.171734 0.731141 0.551418
193 1 0.190205 0.647475 0.695292
240 2 0.106403 0.56584 0.699541
242 1 0.0725103 0.557821 0.656142
300 2 0.0814137 0.703615 0.549277
302 1 0.0423073 0.742394 0.532126
461 2 0.226546 0.74387 0.555089
462 1 0.0743854 0.571527 0.745357
476 2 0.240833 0.672974 0.694431
477 1 0.245876 0.684176 0.637921
120 2 0.466855 0.736928 0.569361
121 1 0.467658 0.727872 0.51086
122 1 0.422069 0.709825 0.586624
171 2 0.366418 0.611636 0.587836
172 1 0.34233 0.571157 0.617346
173 1 0.344549 0.600981 0.537697
340 1 0.462884 0.595186 0.597491
75 2 0.630563 0.746282 0.612034
76 1 0.578551 0.738374 0.595623
150 2 0.516249 0.571421 0.602172
162 2 0.590111 0.640049 0.745114
164 1 0.603496 0.694508 0.732048
182 1 0.711469 0.518685 0.728718
248 1 0.548437 0.602546 0.636264
342 2 0.746272 0.582023 0.510356
359 1 0.557178 0.600462 0.522077
440 1 0.657727 0.707048 0.58214
49 1 0.880282 0.607924 0.721813
229 1 0.907385 0.745684 0.711199
491 2 0.88164 0.65878 0.68454
492 1 0.907149 0.63606 0.640125
512 2 0.968455 0.551136 0.60775
513 1 0.987844 0.545499 0.554178
25 1 0.232893 0.800494 0.555075
40 1 0.120958 0.93882 0.680515
109 1 0.133049 0.898147 0.598796
112 1 0.124269 0.801121 0.700173
333 2 0.144276 0.893335 0.654832
339 2 0.0875859 0.756202 0.707587
107 1 0.312099 0.940778 0.580236
227 1 0.481112 0.821128 0.640761
264 2 0.470961 0.860948 0.679606
294 2 0.306212 0.944774 0.52389
295 1 0.261658 0.975381 0.513821
405 2 0.319358 0.914338 0.694475
406 1 0.287676 0.877014 0.722841
407 1 0.371056 0.889192 0.678471
126 2 0.580222 0.998872 0.704931
185 1 0.51502 0.892174 0.678721
312 2 0.727805 0.876699 0.635186
313 1 0.693917 0.918622 0.641372
486 1 0.687857 0.835147 0.635369
39 2 0.92999 0.796466 0.726893
79 1 0.933171 0.824906 0.520105
293 1 0.924159 0.971752 0.617386
361 1 0.987609 0.793365 0.718033
426 2 0.877585 0.877192 0.591305
427 1 0.817978 0.880836 0.596439
428 1 0.893698 0.855971 0.640003
16 1 0.237111 0.0310754 0.834464
45 2 0.143695 0.219615 0.760211
46 1 0.0893068 0.217473 0.75742
138 2 0.106432 0.246605 0.930286
140 1 0.138096 0.221446 0.892206
184 1 0.00114849 0.0316032 0.944902
261 2 0.195954 0.0667971 0.811887
263 1 0.154232 0.0326779 0.79209
433 1 0.0145977 0.0139198 0.800744
114 2 0.285687 0.198039 0.840627
115 1 0.339727 0.210948 0.849368
116 1 0.253461 0.247044 0.842098
226 1 0.354196 0.0259215 0.887196
235 1 0.439401 0.12811 0.896131
243 2 0.446754 0.232091 0.879924
482 2 0.448412 0.079472 0.925104
483 1 0.470168 0.0984918 0.972729
13 1 0.644214 0.22108 0.909108
127 1 0.587471 0.00281802 0.762212
129 2 0.686952 0.129943 0.937579
130 1 0.679159 0.130943 0.99231
142 1 0.500252 0.235951 0.861911
178 1 0.539304 0.0346581 0.883005
201 2 0.588594 0.0129827 0.861865
505 1 0.652697 0.0868854 0.923479
54 2 0.827788 0.0195815 0.765992
99 2 0.987566 0.0404583 0.998341
267 2 0.98425 0.228472 0.774706
269 1 0.970862 0.209532 0.826811
341 1 0.812132 0.119387 0.976921
84 2 0.221355 0.359142 0.843907
105 2 0.063322 0.410967 0.843147
106 1 0.0452781 0.365677 0.815068
139 1 0.11753 0.301781 0.92005
175 1 0.234145 0.407036 0.818164
430 1 0.118351 0.402142 0.84812
496 1 0.0433163 0.406057 0.951821
131 1 0.309963 0.437386 0.988922
155 1 0.250173 0.357222 0.890635
156 2 0.292957 0.383418 0.983517
306 2 0.403814 0.458252 0.836084
307 1 0.44841 0.428768 0.849965
474 1 0.441376 0.25806 0.930402
136 1 0.596534 0.417497 0.869785
174 2 0.662311 0.40202 0.949381
176 1 0.673542 0.350045 0.932004
207 2 0.615651 0.263045 0.883278
208 1 0.638696 0.266882 0.829146
288 2 0.570959 0.433524 0.821861
289 1 0.60961 0.467189 0.798907
358 1 0.70568 0.43538 0.93438
190 1 0.861736 0.441504 0.986281
203 1 0.871051 0.266522 0.97604
309 2 0.918112 0.258362 0.947002
310 1 0.961184 0.26333 0.981696
360 2 0.799914 0.460051 0.909869
362 1 0.827277 0.433457 0.867102
448 1 0.862304 0.493681 0.761465
124 1 0.119486 0.728168 0.892133
197 1 0.243663 0.645734 0.853612
231 2 0.130917 0.683632 0.859265
244 1 0.106496 0.738132 0.755822
327 2 0.00939669 0.565023 0.851178
328 1 0.0275669 0.510361 0.853246
388 1 0.188908 0.544844 0.920579
390 2 0.160717 0.533791 0.970838
391 1 0.114515 0.5049 0.968288
431 1 0.0861657 0.64747 0.856801
108 2 0.438394 0.690171 0.931277
177 2 0.3519 0.531059 0.976237
179 1 0.46171 0.640987 0.943098
195 2 0.275756 0.597827 0.859426
196 1 0.270929 0.571399 0.80563
253 1 0.422993 0.662935 0.824644
271 1 0.383406 0.680657 0.933365
274 1 0.375312 0.636452 0.758952
326 1 0.389373 0.501031 0.951612
384 2 0.426837 0.629435 0.779768
386 1 0.422209 0.508546 0.81569
459 1 0.318226 0.53626 0.931657
481 1 0.256489 0.734967 0.983316
51 2 0.702918 0.605598 0.937403
53 1 0.714662 0.607021 0.994268
97 1 0.694883 0.661368 0.932936
180 2 0.696028 0.531083 0.780012
181 1 0.660561 0.572673 0.779322
282 2 0.524087 0.541904 0.971358
283 1 0.575906 0.536116 0.950724
403 1 0.536461 0.639473 0.760351
1 3 0.792498 0.566155 0.860343
238 1 0.865809 0.733898 0.959874
330 2 0.86206 0.637399 0.923109
331 1 0.914882 0.617768 0.912461
332 1 0.963241 0.563272 0.817408
423 2 0.777947 0.68293 0.813158
424 1 0.809823 0.683125 0.765123
425 1 0.813352 0.693567 0.857903
447 2 0.875594 0.542409 0.77771
153 2 0.135861 0.863142 0.878932
154 1 0.179288 0.868188 0.840024
236 1 0.0970897 0.903861 0.877646
441 2 0.00575233 0.999112 0.852682
488 2 0.246174 0.795564 0.787705
489 1 0.24714 0.751543 0.750535
15 2 0.319189 0.984107 0.87568
202 1 0.461447 0.852029 0.805045
215 1 0.321722 0.786 0.970718
272 1 0.347122 0.94849 0.841851
317 1 0.365714 0.910452 0.963092
479 2 0.289238 0.75176 0.943614
485 2 0.425757 0.851256 0.847557
487 1 0.436617 0.80107 0.881085
490 1 0.271349 0.77863 0.835746
165 2 0.561471 0.890403 0.955072
167 1 0.510792 0.875641 0.95738
316 1 0.705978 0.775478 0.81979
446 1 0.589653 0.96508 0.893038
455 2 0.66833 0.80918 0.79618
457 1 0.704893 0.837464 0.765729
509 2 0.667521 0.772146 0.97369
510 1 0.641159 0.805686 0.941457
55 1 0.831071 0.969894 0.793635
67 1 0.910329 0.856493 0.807353
95 1 0.873975 0.860648 0.892128
237 2 0.881894 0.789769 0.974308
270 2 0.887257 0.891279 0.845833
370 1 0.952546 0.9739 0.854836
ITEM: TIMESTEP
10000
ITEM: NUMBER OF ATOMS
518
ITEM: BOX BOUNDS pp pp pp
0.0000000000000000e+00 1.7199999999999999e+01
0.0000000000000000e+00 1.7199999999999999e+01
0.0000000000000000e+00 1.7199999999999999e+01
ITEM: ATOMS id type xs ys zs
37 1 0.23868 0.115278 0.0412103
363 2 0.067769 0.0458281 0.218309
224 1 0.173269 0.0335279 0.232514
298 1 0.249448 0.0706608 0.212507
398 1 4.29137e-05 0.0110646 0.0196404
157 1 0.0406797 0.00624368 0.246936
31 1 0.0362425 0.0308827 0.100271
222 2 0.229036 0.0266413 0.245096
186 2 0.433834 0.065221 0.0621506
301 1 0.356585 0.122445 0.11946
393 2 0.311415 0.151445 0.133433
394 1 0.332431 0.173784 0.182433
188 1 0.48415 0.0697161 0.0897347
169 1 0.428113 0.00792904 0.0601455
470 2 0.49516 0.233157 0.142264
338 1 0.658892 0.0473288 0.119401
435 2 0.672231 0.0749787 0.0713498
437 1 0.668238 0.0386526 0.0313376
256 1 0.609562 0.175628 0.18375
255 2 0.656023 0.20158 0.209394
187 1 0.702335 0.185868 0.183603
429 2 0.601041 0.0170767 0.206772
191 1 0.549394 0.00276175 0.227208
43 1 0.885409 0.14783 0.19959
411 2 0.833533 0.167639 0.192289
412 1 0.84153 0.199551 0.145417
350 1 0.982622 0.165545 0.00279091
99 2 0.936076 0.16424 0.0336269
184 1 0.926151 0.109236 0.0456294
70 1 0.0678308 0.281126 0.0511676
71 1 0.0210558 0.275636 0.131954
69 2 0.0466429 0.310436 0.0974526
392 1 0.205446 0.36972 0.224633
408 2 0.223908 0.409499 0.190005
158 1 0.237144 0.484136 0.0319967
145 1 0.179781 0.40902 0.155913
502 1 0.0129922 0.418988 0.163919
396 2 0.0444268 0.464982 0.177668
471 1 0.450167 0.259057 0.122623
262 1 0.327242 0.278481 0.0707282
348 2 0.378148 0.299233 0.0615313
349 1 0.380483 0.352731 0.0785408
131 1 0.325278 0.461145 0.0369303
8 2 0.397055 0.446579 0.0926076
6 2 0.486304 0.477658 0.210561
34 1 0.311135 0.469612 0.215483
434 1 0.544388 0.264106 0.0408537
472 1 0.509956 0.271042 0.18372
179 1 0.502327 0.473144 0.0215838
432 2 0.56146 0.308181 0.0106209
296 1 0.560631 0.355748 0.0503713
5 2 0.575125 0.413227 0.113286
442 1 0.689373 0.366834 0.154523
228 2 0.660584 0.355209 0.202747
3 4 0.573312 0.419254 0.198944
110 1 0.644571 0.305568 0.203997
380 1 0.746336 0.489007 0.0852799
4 2 0.625528 0.487051 0.239729
304 1 0.68294 0.474646 0.234749
378 2 0.704452 0.499838 0.0468499
379 1 0.659707 0.469557 0.0634741
233 1 0.863325 0.347016 0.245779
123 2 0.900771 0.387812 0.235146
144 2 0.78314 0.350106 0.108052
323 1 0.876538 0.43457 0.211939
146 1 0.828542 0.378936 0.0946576
410 1 0.75466 0.339939 0.0582945
203 1 0.971384 0.375887 0.0413676
309 2 0.938952 0.417842 0.0176935
310 1 0.977366 0.458407 0.00823249
388 1 0.137725 0.55281 0.0340658
390 2 0.166926 0.537812 0.080454
391 1 0.125099 0.519128 0.112175
336 2 0.132321 0.715602 0.104778
404 1 0.0882967 0.683275 0.0964045
325 1 0.207078 0.682434 0.177051
160 1 0.0108376 0.508095 0.173734
324 2 0.244885 0.662279 0.218806
9 2 0.348735 0.507741 0.217844
7 4 0.415332 0.50007 0.159357
459 1 0.364827 0.629503 0.0317458
10 2 0.420122 0.585858 0.131724
373 1 0.471144 0.604499 0.107966
286 1 0.263095 0.617336 0.195126
73 1 0.313602 0.747337 0.23743
108 2 0.521685 0.663804 0.0635934
85 1 0.559413 0.630661 0.0358869
271 1 0.547718 0.714222 0.0732633
480 1 0.573829 0.680781 0.234883
220 1 0.611647 0.595138 0.23674
277 1 0.709609 0.666299 0.240295
189 2 0.832748 0.521725 0.172586
52 1 0.827193 0.562771 0.210351
225 2 0.963469 0.636787 0.11243
241 1 0.939924 0.670595 0.148761
190 1 0.872725 0.543264 0.138854
218 1 0.945019 0.648153 0.0594454
53 1 0.750894 0.608195 0.0188789
335 1 0.16886 0.999445 0.0257822
280 1 0.239753 0.777921 0.0166066
346 1 0.106617 0.76599 0.115164
515 2 0.169401 0.943776 0.0399235
216 2 0.0499247 0.84809 0.112079
439 1 0.0731972 0.894811 0.0937288
456 1 0.0315967 0.854705 0.167015
238 1 0.0478125 0.831937 0.000368963
214 1 0.264445 0.953046 0.196922
364 1 0.261902 0.914462 0.111064
213 2 0.289582 0.916636 0.159314
268 1 0.320657 0.834373 0.211675
250 1 0.415644 0.936442 0.244673
215 1 0.473361 0.863495 0.0728911
481 1 0.390336 0.862337 0.0389594
479 2 0.435558 0.898031 0.0414291
478 1 0.537738 0.819526 0.165943
315 2 0.556727 0.819214 0.112601
317 1 0.604188 0.848438 0.118031
500 2 0.747234 0.881587 0.0729656
367 1 0.63275 0.99621 0.247105
89 1 0.849154 0.977433 0.210332
87 2 0.859616 0.93834 0.170683
88 1 0.90769 0.955973 0.146514
217 1 0.767036 0.926127 0.0992276
266 1 0.790624 0.84822 0.0753697
210 2 0.899098 0.79674 0.029103
369 2 0.997993 0.997108 0.074611
211 1 0.947063 0.818345 0.0515016
352 1 0.922168 0.757004 0.241682
92 1 0.100235 0.231517 0.275091
395 1 0.0579378 0.0922372 0.250772
90 2 0.0544453 0.200693 0.272327
74 1 0.205004 0.0608169 0.354298
72 2 0.195892 0.0726446 0.409994
385 1 0.236757 0.0445584 0.438778
247 1 0.0820639 0.03024 0.391387
387 2 0.0271881 0.00943529 0.400954
518 1 0.236984 0.191108 0.450224
91 1 0.0236906 0.220554 0.31528
28 1 0.15235 0.205285 0.477614
27 2 0.205307 0.230101 0.470733
453 1 0.0224134 0.232139 0.459056
14 1 0.409395 0.0457408 0.321595
96 2 0.386297 0.0833266 0.359296
493 1 0.429712 0.0981679 0.390871
514 1 0.355868 0.168137 0.31331
33 2 0.339934 0.213557 0.282844
41 1 0.358568 0.0190066 0.434608
168 2 0.499212 0.161662 0.471722
463 1 0.487231 0.215811 0.480384
438 2 0.638826 0.129351 0.400037
501 1 0.651119 0.160676 0.354872
314 1 0.549475 0.160937 0.445866
397 1 0.638066 0.0754844 0.38461
137 1 0.803193 0.2409 0.288908
257 1 0.893588 0.231121 0.395616
82 1 0.767606 0.143489 0.42366
141 2 0.875607 0.0350804 0.308637
223 1 0.928174 0.0341645 0.330245
143 1 0.849418 0.0664148 0.349261
81 2 0.822771 0.130071 0.431372
125 1 0.982753 0.0484995 0.489929
83 1 0.818155 0.109063 0.483122
290 1 0.239451 0.253859 0.272476
66 2 0.196027 0.278488 0.295697
451 1 0.19766 0.259038 0.348888
151 1 0.106447 0.459238 0.287625
297 2 0.115988 0.456911 0.342332
103 1 0.152329 0.391296 0.435758
356 1 0.0181462 0.447826 0.36055
102 2 0.181557 0.387636 0.482983
104 1 0.195479 0.334566 0.48113
365 1 0.36944 0.259398 0.293664
94 1 0.445315 0.340323 0.440662
21 2 0.419094 0.343034 0.339168
22 1 0.385648 0.387286 0.343478
23 1 0.467401 0.353525 0.297923
508 1 0.274819 0.447219 0.452751
506 2 0.324475 0.474427 0.442291
93 2 0.46047 0.317921 0.488907
507 1 0.353087 0.464108 0.490173
2 2 0.532352 0.356428 0.253541
35 1 0.592752 0.294634 0.358955
345 2 0.644619 0.300152 0.368448
101 1 0.643565 0.346399 0.399594
30 2 0.626118 0.46474 0.440373
499 1 0.711743 0.457318 0.35886
337 1 0.622129 0.449356 0.494024
497 2 0.760647 0.469723 0.327289
303 2 0.942918 0.256489 0.387173
17 1 0.750679 0.299041 0.335595
135 2 0.800127 0.291726 0.312689
305 1 0.927321 0.309967 0.381398
498 1 0.788072 0.422711 0.327653
354 2 0.962965 0.460666 0.366932
355 1 0.9388 0.434523 0.324472
170 1 0.895188 0.421478 0.474711
445 1 0.0663323 0.665802 0.379484
299 1 0.135907 0.507517 0.358641
133 1 0.19569 0.647277 0.390069
495 1 0.185168 0.638415 0.300571
132 2 0.158805 0.631251 0.350423
444 2 0.0148326 0.690388 0.392432
77 1 0.46818 0.606199 0.37452
24 2 0.276322 0.70985 0.44504
322 1 0.3662 0.57446 0.316578
38 1 0.354103 0.560842 0.402951
321 2 0.370416 0.601024 0.366192
26 1 0.319508 0.686709 0.415828
484 1 0.554997 0.609076 0.341201
32 1 0.579665 0.500574 0.427042
503 2 0.521835 0.607411 0.387168
219 2 0.612255 0.646223 0.260999
329 1 0.528827 0.679246 0.442488
246 2 0.528126 0.731171 0.471001
377 1 0.74932 0.727124 0.496233
353 1 0.855273 0.696597 0.263175
42 2 0.763397 0.655755 0.260512
351 2 0.910633 0.701121 0.252491
436 1 0.983514 0.683921 0.346254
513 1 0.980492 0.641078 0.467229
198 2 0.816418 0.595336 0.415095
199 1 0.853019 0.576193 0.452727
200 1 0.796848 0.551411 0.38176
376 1 0.7947 0.689737 0.429229
44 1 0.758708 0.652378 0.314489
375 2 0.771519 0.739639 0.444743
48 2 0.0834048 0.845958 0.372946
50 1 0.0710426 0.791951 0.382799
504 1 0.14091 0.850274 0.37611
401 1 0.0304751 0.952336 0.399731
383 1 0.00501834 0.86197 0.301788
152 1 0.129421 0.924729 0.491507
245 1 0.446333 0.771478 0.266361
249 2 0.455489 0.953989 0.28207
318 2 0.325939 0.989194 0.474595
134 1 0.278293 0.765925 0.432423
36 2 0.25063 0.850092 0.376141
372 2 0.33996 0.795991 0.252775
251 1 0.458488 0.92197 0.327128
100 1 0.27582 0.831046 0.328933
334 1 0.279438 0.896593 0.390554
117 2 0.474729 0.872568 0.411067
119 1 0.492615 0.822697 0.427109
458 2 0.500977 0.775215 0.260096
460 1 0.526465 0.805125 0.301792
399 2 0.67594 0.970143 0.367875
400 1 0.732441 0.96691 0.360675
311 1 0.66354 0.914936 0.371619
443 1 0.618289 0.966937 0.465546
232 1 0.608802 0.777606 0.416394
118 1 0.507299 0.911832 0.439336
86 1 0.695652 0.786221 0.398803
63 2 0.645128 0.809285 0.383113
381 2 0.985624 0.869227 0.250858
382 1 0.93461 0.888303 0.25467
80 1 0.859438 0.80371 0.481824
452 2 0.055588 0.214353 0.500668
454 1 0.0273884 0.166004 0.519082
285 2 0.220871 0.150389 0.638469
308 1 0.119691 0.199981 0.662987
402 2 0.0650444 0.212633 0.659922
413 1 0.058128 0.242144 0.613026
40 1 0.151858 0.0735157 0.645735
287 1 0.212662 0.171004 0.585009
109 1 0.0764867 0.0432654 0.613788
333 2 0.120017 0.0246769 0.64373
466 1 0.045367 0.123389 0.735428
206 1 0.445285 0.0254383 0.586101
204 2 0.498216 0.0398374 0.575153
11 3 0.283792 0.216366 0.711718
295 1 0.283917 0.0763018 0.628977
294 2 0.331931 0.0367582 0.624715
320 1 0.327904 0.00723494 0.52796
347 1 0.427541 0.161262 0.739744
239 1 0.367015 0.089462 0.70296
234 2 0.375479 0.139517 0.732583
205 1 0.507776 0.0813726 0.542364
113 1 0.555179 0.0409146 0.698103
258 2 0.675691 0.166473 0.667246
259 1 0.647493 0.149188 0.710002
371 1 0.683418 0.12316 0.635258
126 2 0.574273 0.0126035 0.744173
207 2 0.528071 0.212762 0.746594
13 1 0.523161 0.247508 0.700771
276 2 0.988893 0.0750834 0.539306
221 1 0.82132 0.231203 0.549296
278 1 0.935216 0.0826887 0.562667
292 1 0.842887 0.122985 0.638037
291 2 0.841705 0.093327 0.586988
18 2 0.831522 0.16704 0.728799
293 1 0.831422 0.0381528 0.602421
46 1 0.164157 0.2919 0.744874
45 2 0.203937 0.311792 0.710965
47 1 0.186178 0.358736 0.682934
273 2 0.137821 0.458793 0.613043
275 1 0.149958 0.446637 0.558715
421 1 0.0376968 0.459172 0.64535
139 1 0.0657702 0.291951 0.743221
161 1 0.3426 0.260391 0.560338
159 2 0.34068 0.270227 0.615601
61 1 0.424959 0.425552 0.5911
419 1 0.335364 0.326508 0.622415
449 2 0.372865 0.434285 0.609078
450 1 0.38505 0.465306 0.656446
368 1 0.679639 0.265572 0.649013
366 2 0.6869 0.317966 0.634466
265 1 0.736073 0.32254 0.607211
163 1 0.50235 0.350313 0.508368
467 2 0.566865 0.396958 0.590161
469 1 0.615323 0.372925 0.610783
344 1 0.728957 0.461792 0.643605
468 1 0.580036 0.450194 0.602606
342 2 0.727977 0.497477 0.600076
420 2 0.983367 0.465897 0.656119
192 2 0.879447 0.439392 0.524459
12 2 0.841882 0.27973 0.567009
209 1 0.868931 0.263975 0.617563
343 1 0.776553 0.486796 0.572847
59 1 0.789344 0.401691 0.731481
194 1 0.87534 0.390747 0.555089
416 1 0.912272 0.391717 0.697685
422 1 0.961286 0.464419 0.603673
414 2 0.874608 0.353609 0.714776
260 1 0.164635 0.507098 0.631838
149 1 0.17518 0.634417 0.662517
240 2 0.103398 0.697399 0.673239
242 1 0.0673776 0.726885 0.641621
462 1 0.0737676 0.663144 0.703095
147 2 0.214281 0.592405 0.66281
409 1 0.028645 0.61536 0.532902
148 1 0.258149 0.599102 0.627888
477 1 0.255423 0.745804 0.551291
171 2 0.350232 0.623816 0.588918
172 1 0.360726 0.67493 0.572155
173 1 0.391552 0.605506 0.619109
162 2 0.429439 0.535272 0.717844
164 1 0.424893 0.587215 0.735517
485 2 0.41859 0.7107 0.749742
319 1 0.560458 0.722409 0.514632
440 1 0.685084 0.695491 0.638707
340 1 0.57917 0.607711 0.596579
150 2 0.542252 0.565199 0.592861
248 1 0.508683 0.561523 0.638217
75 2 0.653177 0.723473 0.600482
516 1 0.744214 0.585621 0.655181
417 2 0.749935 0.633016 0.691265
316 1 0.692266 0.705621 0.74927
512 2 0.974991 0.61098 0.516423
418 1 0.804761 0.651461 0.678464
49 1 0.903167 0.643748 0.727543
491 2 0.894576 0.672839 0.677465
492 1 0.923703 0.64516 0.637769
302 1 0.0659948 0.852422 0.574887
300 2 0.0279064 0.814364 0.587959
112 1 0.121042 0.885053 0.680845
461 2 0.144055 0.912276 0.543172
244 1 0.11062 0.813073 0.731245
25 1 0.149301 0.957123 0.582186
339 2 0.104516 0.867961 0.732183
193 1 0.209986 0.823171 0.562515
476 2 0.241591 0.783822 0.589483
107 1 0.317644 0.996404 0.662437
359 1 0.40749 0.853693 0.505282
357 2 0.399607 0.829551 0.555293
65 1 0.343503 0.830112 0.560782
489 1 0.250431 0.782367 0.71271
227 1 0.493586 0.863329 0.736158
252 2 0.588728 0.942164 0.505542
254 1 0.554738 0.978474 0.533564
121 1 0.579394 0.876002 0.602741
122 1 0.510038 0.821969 0.613894
120 2 0.554394 0.844445 0.640682
76 1 0.627574 0.763829 0.629955
312 2 0.696183 0.902547 0.710626
486 1 0.657053 0.937691 0.724038
313 1 0.682285 0.849177 0.715074
78 2 0.892137 0.84561 0.502095
64 1 0.984623 0.821174 0.55231
361 1 0.954629 0.83978 0.668514
229 1 0.894197 0.78467 0.691791
39 2 0.906336 0.839143 0.697367